V -t * -v 1.0a5 -a 0
A -t * -n 1 -p 0 -o 0xffffffff -c 31 -a 1
A -t * -h 1 -m 2147483647 -s 0
c -t * -i 1 -n red
c -t * -i 2 -n blue
n -t * -a 0 -s 0 -S UP -v circle -c black -i black
n -t * -a 1 -s 1 -S UP -v circle -c black -i black
n -t * -a 2 -s 2 -S UP -v circle -c black -i black
n -t * -a 3 -s 3 -S UP -v circle -c black -i black
l -t * -s 0 -d 1 -S UP -r 1000000 -D 0.01 -c black
l -t * -s 1 -d 2 -S UP -r 1000000 -D 0.01 -c black
l -t * -s 1 -d 3 -S UP -r 1000000 -D 0.01 -c black
l -t * -s 2 -d 3 -S UP -r 1000000 -D 0.01 -c black
q -t * -s 2 -d 1 -a 0.5
q -t * -s 1 -d 2 -a 0.5
+ -t 0.000169788487334637 -s 0 -d 1 -p rtProtoDV -e 4 -c 0 -i 0 -a 0 -x {0.2 1.2 -1 ------- null}
- -t 0.000169788487334637 -s 0 -d 1 -p rtProtoDV -e 4 -c 0 -i 0 -a 0 -x {0.2 1.2 -1 ------- null}
h -t 0.000169788487334637 -s 0 -d 1 -p rtProtoDV -e 4 -c 0 -i 0 -a 0 -x {0.2 1.2 -1 ------- null}
+ -t 0.00710233021858257 -s 2 -d 1 -p rtProtoDV -e 4 -c 0 -i 1 -a 0 -x {2.2 1.2 -1 ------- null}
- -t 0.00710233021858257 -s 2 -d 1 -p rtProtoDV -e 4 -c 0 -i 1 -a 0 -x {2.2 1.2 -1 ------- null}
h -t 0.00710233021858257 -s 2 -d 1 -p rtProtoDV -e 4 -c 0 -i 1 -a 0 -x {2.2 1.2 -1 ------- null}
+ -t 0.00710233021858257 -s 2 -d 3 -p rtProtoDV -e 4 -c 0 -i 2 -a 0 -x {2.2 3.2 -1 ------- null}
- -t 0.00710233021858257 -s 2 -d 3 -p rtProtoDV -e 4 -c 0 -i 2 -a 0 -x {2.2 3.2 -1 ------- null}
h -t 0.00710233021858257 -s 2 -d 3 -p rtProtoDV -e 4 -c 0 -i 2 -a 0 -x {2.2 3.2 -1 ------- null}
r -t 0.0102017884873346 -s 0 -d 1 -p rtProtoDV -e 4 -c 0 -i 0 -a 0 -x {0.2 1.2 -1 ------- null}
r -t 0.0171343302185826 -s 2 -d 1 -p rtProtoDV -e 4 -c 0 -i 1 -a 0 -x {2.2 1.2 -1 ------- null}
r -t 0.0171343302185826 -s 2 -d 3 -p rtProtoDV -e 4 -c 0 -i 2 -a 0 -x {2.2 3.2 -1 ------- null}
+ -t 0.04406133552271 -s 3 -d 1 -p rtProtoDV -e 4 -c 0 -i 3 -a 0 -x {3.2 1.2 -1 ------- null}
- -t 0.04406133552271 -s 3 -d 1 -p rtProtoDV -e 4 -c 0 -i 3 -a 0 -x {3.2 1.2 -1 ------- null}
h -t 0.04406133552271 -s 3 -d 1 -p rtProtoDV -e 4 -c 0 -i 3 -a 0 -x {3.2 1.2 -1 ------- null}
+ -t 0.04406133552271 -s 3 -d 2 -p rtProtoDV -e 4 -c 0 -i 4 -a 0 -x {3.2 2.2 -1 ------- null}
- -t 0.04406133552271 -s 3 -d 2 -p rtProtoDV -e 4 -c 0 -i 4 -a 0 -x {3.2 2.2 -1 ------- null}
h -t 0.04406133552271 -s 3 -d 2 -p rtProtoDV -e 4 -c 0 -i 4 -a 0 -x {3.2 2.2 -1 ------- null}
r -t 0.05409333552271 -s 3 -d 1 -p rtProtoDV -e 4 -c 0 -i 3 -a 0 -x {3.2 1.2 -1 ------- null}
r -t 0.05409333552271 -s 3 -d 2 -p rtProtoDV -e 4 -c 0 -i 4 -a 0 -x {3.2 2.2 -1 ------- null}
+ -t 0.277940357931862 -s 1 -d 0 -p rtProtoDV -e 4 -c 0 -i 5 -a 0 -x {1.2 0.2 -1 ------- null}
- -t 0.277940357931862 -s 1 -d 0 -p rtProtoDV -e 4 -c 0 -i 5 -a 0 -x {1.2 0.2 -1 ------- null}
h -t 0.277940357931862 -s 1 -d 0 -p rtProtoDV -e 4 -c 0 -i 5 -a 0 -x {1.2 0.2 -1 ------- null}
+ -t 0.277940357931862 -s 1 -d 2 -p rtProtoDV -e 4 -c 0 -i 6 -a 0 -x {1.2 2.2 -1 ------- null}
- -t 0.277940357931862 -s 1 -d 2 -p rtProtoDV -e 4 -c 0 -i 6 -a 0 -x {1.2 2.2 -1 ------- null}
h -t 0.277940357931862 -s 1 -d 2 -p rtProtoDV -e 4 -c 0 -i 6 -a 0 -x {1.2 2.2 -1 ------- null}
+ -t 0.277940357931862 -s 1 -d 3 -p rtProtoDV -e 4 -c 0 -i 7 -a 0 -x {1.2 3.2 -1 ------- null}
- -t 0.277940357931862 -s 1 -d 3 -p rtProtoDV -e 4 -c 0 -i 7 -a 0 -x {1.2 3.2 -1 ------- null}
h -t 0.277940357931862 -s 1 -d 3 -p rtProtoDV -e 4 -c 0 -i 7 -a 0 -x {1.2 3.2 -1 ------- null}
r -t 0.287972357931862 -s 1 -d 0 -p rtProtoDV -e 4 -c 0 -i 5 -a 0 -x {1.2 0.2 -1 ------- null}
+ -t 0.287972357931862 -s 0 -d 1 -p rtProtoDV -e 4 -c 0 -i 8 -a 0 -x {0.2 1.2 -1 ------- null}
- -t 0.287972357931862 -s 0 -d 1 -p rtProtoDV -e 4 -c 0 -i 8 -a 0 -x {0.2 1.2 -1 ------- null}
h -t 0.287972357931862 -s 0 -d 1 -p rtProtoDV -e 4 -c 0 -i 8 -a 0 -x {0.2 1.2 -1 ------- null}
r -t 0.287972357931862 -s 1 -d 2 -p rtProtoDV -e 4 -c 0 -i 6 -a 0 -x {1.2 2.2 -1 ------- null}
+ -t 0.287972357931862 -s 2 -d 1 -p rtProtoDV -e 4 -c 0 -i 9 -a 0 -x {2.2 1.2 -1 ------- null}
- -t 0.287972357931862 -s 2 -d 1 -p rtProtoDV -e 4 -c 0 -i 9 -a 0 -x {2.2 1.2 -1 ------- null}
h -t 0.287972357931862 -s 2 -d 1 -p rtProtoDV -e 4 -c 0 -i 9 -a 0 -x {2.2 1.2 -1 ------- null}
+ -t 0.287972357931862 -s 2 -d 3 -p rtProtoDV -e 4 -c 0 -i 10 -a 0 -x {2.2 3.2 -1 ------- null}
- -t 0.287972357931862 -s 2 -d 3 -p rtProtoDV -e 4 -c 0 -i 10 -a 0 -x {2.2 3.2 -1 ------- null}
h -t 0.287972357931862 -s 2 -d 3 -p rtProtoDV -e 4 -c 0 -i 10 -a 0 -x {2.2 3.2 -1 ------- null}
r -t 0.287972357931862 -s 1 -d 3 -p rtProtoDV -e 4 -c 0 -i 7 -a 0 -x {1.2 3.2 -1 ------- null}
+ -t 0.287972357931862 -s 3 -d 1 -p rtProtoDV -e 4 -c 0 -i 11 -a 0 -x {3.2 1.2 -1 ------- null}
- -t 0.287972357931862 -s 3 -d 1 -p rtProtoDV -e 4 -c 0 -i 11 -a 0 -x {3.2 1.2 -1 ------- null}
h -t 0.287972357931862 -s 3 -d 1 -p rtProtoDV -e 4 -c 0 -i 11 -a 0 -x {3.2 1.2 -1 ------- null}
+ -t 0.287972357931862 -s 3 -d 2 -p rtProtoDV -e 4 -c 0 -i 12 -a 0 -x {3.2 2.2 -1 ------- null}
- -t 0.287972357931862 -s 3 -d 2 -p rtProtoDV -e 4 -c 0 -i 12 -a 0 -x {3.2 2.2 -1 ------- null}
h -t 0.287972357931862 -s 3 -d 2 -p rtProtoDV -e 4 -c 0 -i 12 -a 0 -x {3.2 2.2 -1 ------- null}
r -t 0.298004357931862 -s 0 -d 1 -p rtProtoDV -e 4 -c 0 -i 8 -a 0 -x {0.2 1.2 -1 ------- null}
r -t 0.298004357931862 -s 2 -d 1 -p rtProtoDV -e 4 -c 0 -i 9 -a 0 -x {2.2 1.2 -1 ------- null}
r -t 0.298004357931862 -s 2 -d 3 -p rtProtoDV -e 4 -c 0 -i 10 -a 0 -x {2.2 3.2 -1 ------- null}
r -t 0.298004357931862 -s 3 -d 1 -p rtProtoDV -e 4 -c 0 -i 11 -a 0 -x {3.2 1.2 -1 ------- null}
r -t 0.298004357931862 -s 3 -d 2 -p rtProtoDV -e 4 -c 0 -i 12 -a 0 -x {3.2 2.2 -1 ------- null}
+ -t 0.3 -s 2 -d 1 -p cbr -e 600 -c 1 -i 13 -a 1 -x {2.0 0.0 0 ------- null}
- -t 0.3 -s 2 -d 1 -p cbr -e 600 -c 1 -i 13 -a 1 -x {2.0 0.0 0 ------- null}
h -t 0.3 -s 2 -d 1 -p cbr -e 600 -c 1 -i 13 -a 1 -x {2.0 0.0 -1 ------- null}
+ -t 0.3 -s 3 -d 1 -p cbr -e 600 -c 2 -i 14 -a 2 -x {3.0 1.0 0 ------- null}
- -t 0.3 -s 3 -d 1 -p cbr -e 600 -c 2 -i 14 -a 2 -x {3.0 1.0 0 ------- null}
h -t 0.3 -s 3 -d 1 -p cbr -e 600 -c 2 -i 14 -a 2 -x {3.0 1.0 -1 ------- null}
+ -t 0.305 -s 2 -d 1 -p cbr -e 600 -c 1 -i 15 -a 1 -x {2.0 0.0 1 ------- null}
- -t 0.305 -s 2 -d 1 -p cbr -e 600 -c 1 -i 15 -a 1 -x {2.0 0.0 1 ------- null}
h -t 0.305 -s 2 -d 1 -p cbr -e 600 -c 1 -i 15 -a 1 -x {2.0 0.0 -1 ------- null}
+ -t 0.305 -s 3 -d 1 -p cbr -e 600 -c 2 -i 16 -a 2 -x {3.0 1.0 1 ------- null}
- -t 0.305 -s 3 -d 1 -p cbr -e 600 -c 2 -i 16 -a 2 -x {3.0 1.0 1 ------- null}
h -t 0.305 -s 3 -d 1 -p cbr -e 600 -c 2 -i 16 -a 2 -x {3.0 1.0 -1 ------- null}
+ -t 0.31 -s 2 -d 1 -p cbr -e 600 -c 1 -i 17 -a 1 -x {2.0 0.0 2 ------- null}
- -t 0.31 -s 2 -d 1 -p cbr -e 600 -c 1 -i 17 -a 1 -x {2.0 0.0 2 ------- null}
h -t 0.31 -s 2 -d 1 -p cbr -e 600 -c 1 -i 17 -a 1 -x {2.0 0.0 -1 ------- null}
+ -t 0.31 -s 3 -d 1 -p cbr -e 600 -c 2 -i 18 -a 2 -x {3.0 1.0 2 ------- null}
- -t 0.31 -s 3 -d 1 -p cbr -e 600 -c 2 -i 18 -a 2 -x {3.0 1.0 2 ------- null}
h -t 0.31 -s 3 -d 1 -p cbr -e 600 -c 2 -i 18 -a 2 -x {3.0 1.0 -1 ------- null}
r -t 0.3148 -s 2 -d 1 -p cbr -e 600 -c 1 -i 13 -a 1 -x {2.0 0.0 0 ------- null}
+ -t 0.3148 -s 1 -d 0 -p cbr -e 600 -c 1 -i 13 -a 1 -x {2.0 0.0 0 ------- null}
- -t 0.3148 -s 1 -d 0 -p cbr -e 600 -c 1 -i 13 -a 1 -x {2.0 0.0 0 ------- null}
h -t 0.3148 -s 1 -d 0 -p cbr -e 600 -c 1 -i 13 -a 1 -x {2.0 0.0 -1 ------- null}
r -t 0.3148 -s 3 -d 1 -p cbr -e 600 -c 2 -i 14 -a 2 -x {3.0 1.0 0 ------- null}
+ -t 0.315 -s 2 -d 1 -p cbr -e 600 -c 1 -i 19 -a 1 -x {2.0 0.0 3 ------- null}
- -t 0.315 -s 2 -d 1 -p cbr -e 600 -c 1 -i 19 -a 1 -x {2.0 0.0 3 ------- null}
h -t 0.315 -s 2 -d 1 -p cbr -e 600 -c 1 -i 19 -a 1 -x {2.0 0.0 -1 ------- null}
+ -t 0.315 -s 3 -d 1 -p cbr -e 600 -c 2 -i 20 -a 2 -x {3.0 1.0 3 ------- null}
- -t 0.315 -s 3 -d 1 -p cbr -e 600 -c 2 -i 20 -a 2 -x {3.0 1.0 3 ------- null}
h -t 0.315 -s 3 -d 1 -p cbr -e 600 -c 2 -i 20 -a 2 -x {3.0 1.0 -1 ------- null}
r -t 0.3198 -s 2 -d 1 -p cbr -e 600 -c 1 -i 15 -a 1 -x {2.0 0.0 1 ------- null}
+ -t 0.3198 -s 1 -d 0 -p cbr -e 600 -c 1 -i 15 -a 1 -x {2.0 0.0 1 ------- null}
- -t 0.3198 -s 1 -d 0 -p cbr -e 600 -c 1 -i 15 -a 1 -x {2.0 0.0 1 ------- null}
h -t 0.3198 -s 1 -d 0 -p cbr -e 600 -c 1 -i 15 -a 1 -x {2.0 0.0 -1 ------- null}
r -t 0.3198 -s 3 -d 1 -p cbr -e 600 -c 2 -i 16 -a 2 -x {3.0 1.0 1 ------- null}
+ -t 0.32 -s 2 -d 1 -p cbr -e 600 -c 1 -i 21 -a 1 -x {2.0 0.0 4 ------- null}
- -t 0.32 -s 2 -d 1 -p cbr -e 600 -c 1 -i 21 -a 1 -x {2.0 0.0 4 ------- null}
h -t 0.32 -s 2 -d 1 -p cbr -e 600 -c 1 -i 21 -a 1 -x {2.0 0.0 -1 ------- null}
+ -t 0.32 -s 3 -d 1 -p cbr -e 600 -c 2 -i 22 -a 2 -x {3.0 1.0 4 ------- null}
- -t 0.32 -s 3 -d 1 -p cbr -e 600 -c 2 -i 22 -a 2 -x {3.0 1.0 4 ------- null}
h -t 0.32 -s 3 -d 1 -p cbr -e 600 -c 2 -i 22 -a 2 -x {3.0 1.0 -1 ------- null}
r -t 0.3248 -s 2 -d 1 -p cbr -e 600 -c 1 -i 17 -a 1 -x {2.0 0.0 2 ------- null}
+ -t 0.3248 -s 1 -d 0 -p cbr -e 600 -c 1 -i 17 -a 1 -x {2.0 0.0 2 ------- null}
- -t 0.3248 -s 1 -d 0 -p cbr -e 600 -c 1 -i 17 -a 1 -x {2.0 0.0 2 ------- null}
h -t 0.3248 -s 1 -d 0 -p cbr -e 600 -c 1 -i 17 -a 1 -x {2.0 0.0 -1 ------- null}
r -t 0.3248 -s 3 -d 1 -p cbr -e 600 -c 2 -i 18 -a 2 -x {3.0 1.0 2 ------- null}
+ -t 0.325 -s 2 -d 1 -p cbr -e 600 -c 1 -i 23 -a 1 -x {2.0 0.0 5 ------- null}
- -t 0.325 -s 2 -d 1 -p cbr -e 600 -c 1 -i 23 -a 1 -x {2.0 0.0 5 ------- null}
h -t 0.325 -s 2 -d 1 -p cbr -e 600 -c 1 -i 23 -a 1 -x {2.0 0.0 -1 ------- null}
+ -t 0.325 -s 3 -d 1 -p cbr -e 600 -c 2 -i 24 -a 2 -x {3.0 1.0 5 ------- null}
- -t 0.325 -s 3 -d 1 -p cbr -e 600 -c 2 -i 24 -a 2 -x {3.0 1.0 5 ------- null}
h -t 0.325 -s 3 -d 1 -p cbr -e 600 -c 2 -i 24 -a 2 -x {3.0 1.0 -1 ------- null}
r -t 0.3296 -s 1 -d 0 -p cbr -e 600 -c 1 -i 13 -a 1 -x {2.0 0.0 0 ------- null}
r -t 0.3298 -s 2 -d 1 -p cbr -e 600 -c 1 -i 19 -a 1 -x {2.0 0.0 3 ------- null}
+ -t 0.3298 -s 1 -d 0 -p cbr -e 600 -c 1 -i 19 -a 1 -x {2.0 0.0 3 ------- null}
- -t 0.3298 -s 1 -d 0 -p cbr -e 600 -c 1 -i 19 -a 1 -x {2.0 0.0 3 ------- null}
h -t 0.3298 -s 1 -d 0 -p cbr -e 600 -c 1 -i 19 -a 1 -x {2.0 0.0 -1 ------- null}
r -t 0.3298 -s 3 -d 1 -p cbr -e 600 -c 2 -i 20 -a 2 -x {3.0 1.0 3 ------- null}
+ -t 0.33 -s 2 -d 1 -p cbr -e 600 -c 1 -i 25 -a 1 -x {2.0 0.0 6 ------- null}
- -t 0.33 -s 2 -d 1 -p cbr -e 600 -c 1 -i 25 -a 1 -x {2.0 0.0 6 ------- null}
h -t 0.33 -s 2 -d 1 -p cbr -e 600 -c 1 -i 25 -a 1 -x {2.0 0.0 -1 ------- null}
+ -t 0.33 -s 3 -d 1 -p cbr -e 600 -c 2 -i 26 -a 2 -x {3.0 1.0 6 ------- null}
- -t 0.33 -s 3 -d 1 -p cbr -e 600 -c 2 -i 26 -a 2 -x {3.0 1.0 6 ------- null}
h -t 0.33 -s 3 -d 1 -p cbr -e 600 -c 2 -i 26 -a 2 -x {3.0 1.0 -1 ------- null}
r -t 0.3346 -s 1 -d 0 -p cbr -e 600 -c 1 -i 15 -a 1 -x {2.0 0.0 1 ------- null}
r -t 0.3348 -s 2 -d 1 -p cbr -e 600 -c 1 -i 21 -a 1 -x {2.0 0.0 4 ------- null}
+ -t 0.3348 -s 1 -d 0 -p cbr -e 600 -c 1 -i 21 -a 1 -x {2.0 0.0 4 ------- null}
- -t 0.3348 -s 1 -d 0 -p cbr -e 600 -c 1 -i 21 -a 1 -x {2.0 0.0 4 ------- null}
h -t 0.3348 -s 1 -d 0 -p cbr -e 600 -c 1 -i 21 -a 1 -x {2.0 0.0 -1 ------- null}
r -t 0.3348 -s 3 -d 1 -p cbr -e 600 -c 2 -i 22 -a 2 -x {3.0 1.0 4 ------- null}
+ -t 0.335 -s 2 -d 1 -p cbr -e 600 -c 1 -i 27 -a 1 -x {2.0 0.0 7 ------- null}
- -t 0.335 -s 2 -d 1 -p cbr -e 600 -c 1 -i 27 -a 1 -x {2.0 0.0 7 ------- null}
h -t 0.335 -s 2 -d 1 -p cbr -e 600 -c 1 -i 27 -a 1 -x {2.0 0.0 -1 ------- null}
+ -t 0.335 -s 3 -d 1 -p cbr -e 600 -c 2 -i 28 -a 2 -x {3.0 1.0 7 ------- null}
- -t 0.335 -s 3 -d 1 -p cbr -e 600 -c 2 -i 28 -a 2 -x {3.0 1.0 7 ------- null}
h -t 0.335 -s 3 -d 1 -p cbr -e 600 -c 2 -i 28 -a 2 -x {3.0 1.0 -1 ------- null}
r -t 0.3396 -s 1 -d 0 -p cbr -e 600 -c 1 -i 17 -a 1 -x {2.0 0.0 2 ------- null}
r -t 0.3398 -s 2 -d 1 -p cbr -e 600 -c 1 -i 23 -a 1 -x {2.0 0.0 5 ------- null}
+ -t 0.3398 -s 1 -d 0 -p cbr -e 600 -c 1 -i 23 -a 1 -x {2.0 0.0 5 ------- null}
- -t 0.3398 -s 1 -d 0 -p cbr -e 600 -c 1 -i 23 -a 1 -x {2.0 0.0 5 ------- null}
h -t 0.3398 -s 1 -d 0 -p cbr -e 600 -c 1 -i 23 -a 1 -x {2.0 0.0 -1 ------- null}
r -t 0.3398 -s 3 -d 1 -p cbr -e 600 -c 2 -i 24 -a 2 -x {3.0 1.0 5 ------- null}
+ -t 0.34 -s 2 -d 1 -p cbr -e 600 -c 1 -i 29 -a 1 -x {2.0 0.0 8 ------- null}
- -t 0.34 -s 2 -d 1 -p cbr -e 600 -c 1 -i 29 -a 1 -x {2.0 0.0 8 ------- null}
h -t 0.34 -s 2 -d 1 -p cbr -e 600 -c 1 -i 29 -a 1 -x {2.0 0.0 -1 ------- null}
+ -t 0.34 -s 3 -d 1 -p cbr -e 600 -c 2 -i 30 -a 2 -x {3.0 1.0 8 ------- null}
- -t 0.34 -s 3 -d 1 -p cbr -e 600 -c 2 -i 30 -a 2 -x {3.0 1.0 8 ------- null}
h -t 0.34 -s 3 -d 1 -p cbr -e 600 -c 2 -i 30 -a 2 -x {3.0 1.0 -1 ------- null}
r -t 0.3446 -s 1 -d 0 -p cbr -e 600 -c 1 -i 19 -a 1 -x {2.0 0.0 3 ------- null}
r -t 0.3448 -s 2 -d 1 -p cbr -e 600 -c 1 -i 25 -a 1 -x {2.0 0.0 6 ------- null}
+ -t 0.3448 -s 1 -d 0 -p cbr -e 600 -c 1 -i 25 -a 1 -x {2.0 0.0 6 ------- null}
- -t 0.3448 -s 1 -d 0 -p cbr -e 600 -c 1 -i 25 -a 1 -x {2.0 0.0 6 ------- null}
h -t 0.3448 -s 1 -d 0 -p cbr -e 600 -c 1 -i 25 -a 1 -x {2.0 0.0 -1 ------- null}
r -t 0.3448 -s 3 -d 1 -p cbr -e 600 -c 2 -i 26 -a 2 -x {3.0 1.0 6 ------- null}
+ -t 0.345 -s 2 -d 1 -p cbr -e 600 -c 1 -i 31 -a 1 -x {2.0 0.0 9 ------- null}
- -t 0.345 -s 2 -d 1 -p cbr -e 600 -c 1 -i 31 -a 1 -x {2.0 0.0 9 ------- null}
h -t 0.345 -s 2 -d 1 -p cbr -e 600 -c 1 -i 31 -a 1 -x {2.0 0.0 -1 ------- null}
+ -t 0.345 -s 3 -d 1 -p cbr -e 600 -c 2 -i 32 -a 2 -x {3.0 1.0 9 ------- null}
- -t 0.345 -s 3 -d 1 -p cbr -e 600 -c 2 -i 32 -a 2 -x {3.0 1.0 9 ------- null}
h -t 0.345 -s 3 -d 1 -p cbr -e 600 -c 2 -i 32 -a 2 -x {3.0 1.0 -1 ------- null}
r -t 0.3496 -s 1 -d 0 -p cbr -e 600 -c 1 -i 21 -a 1 -x {2.0 0.0 4 ------- null}
r -t 0.3498 -s 2 -d 1 -p cbr -e 600 -c 1 -i 27 -a 1 -x {2.0 0.0 7 ------- null}
+ -t 0.3498 -s 1 -d 0 -p cbr -e 600 -c 1 -i 27 -a 1 -x {2.0 0.0 7 ------- null}
- -t 0.3498 -s 1 -d 0 -p cbr -e 600 -c 1 -i 27 -a 1 -x {2.0 0.0 7 ------- null}
h -t 0.3498 -s 1 -d 0 -p cbr -e 600 -c 1 -i 27 -a 1 -x {2.0 0.0 -1 ------- null}
r -t 0.3498 -s 3 -d 1 -p cbr -e 600 -c 2 -i 28 -a 2 -x {3.0 1.0 7 ------- null}
+ -t 0.35 -s 2 -d 1 -p cbr -e 600 -c 1 -i 33 -a 1 -x {2.0 0.0 10 ------- null}
- -t 0.35 -s 2 -d 1 -p cbr -e 600 -c 1 -i 33 -a 1 -x {2.0 0.0 10 ------- null}
h -t 0.35 -s 2 -d 1 -p cbr -e 600 -c 1 -i 33 -a 1 -x {2.0 0.0 -1 ------- null}
+ -t 0.35 -s 3 -d 1 -p cbr -e 600 -c 2 -i 34 -a 2 -x {3.0 1.0 10 ------- null}
- -t 0.35 -s 3 -d 1 -p cbr -e 600 -c 2 -i 34 -a 2 -x {3.0 1.0 10 ------- null}
h -t 0.35 -s 3 -d 1 -p cbr -e 600 -c 2 -i 34 -a 2 -x {3.0 1.0 -1 ------- null}
r -t 0.3546 -s 1 -d 0 -p cbr -e 600 -c 1 -i 23 -a 1 -x {2.0 0.0 5 ------- null}
r -t 0.3548 -s 2 -d 1 -p cbr -e 600 -c 1 -i 29 -a 1 -x {2.0 0.0 8 ------- null}
+ -t 0.3548 -s 1 -d 0 -p cbr -e 600 -c 1 -i 29 -a 1 -x {2.0 0.0 8 ------- null}
- -t 0.3548 -s 1 -d 0 -p cbr -e 600 -c 1 -i 29 -a 1 -x {2.0 0.0 8 ------- null}
h -t 0.3548 -s 1 -d 0 -p cbr -e 600 -c 1 -i 29 -a 1 -x {2.0 0.0 -1 ------- null}
r -t 0.3548 -s 3 -d 1 -p cbr -e 600 -c 2 -i 30 -a 2 -x {3.0 1.0 8 ------- null}
+ -t 0.355 -s 2 -d 1 -p cbr -e 600 -c 1 -i 35 -a 1 -x {2.0 0.0 11 ------- null}
- -t 0.355 -s 2 -d 1 -p cbr -e 600 -c 1 -i 35 -a 1 -x {2.0 0.0 11 ------- null}
h -t 0.355 -s 2 -d 1 -p cbr -e 600 -c 1 -i 35 -a 1 -x {2.0 0.0 -1 ------- null}
+ -t 0.355 -s 3 -d 1 -p cbr -e 600 -c 2 -i 36 -a 2 -x {3.0 1.0 11 ------- null}
- -t 0.355 -s 3 -d 1 -p cbr -e 600 -c 2 -i 36 -a 2 -x {3.0 1.0 11 ------- null}
h -t 0.355 -s 3 -d 1 -p cbr -e 600 -c 2 -i 36 -a 2 -x {3.0 1.0 -1 ------- null}
r -t 0.3596 -s 1 -d 0 -p cbr -e 600 -c 1 -i 25 -a 1 -x {2.0 0.0 6 ------- null}
r -t 0.3598 -s 2 -d 1 -p cbr -e 600 -c 1 -i 31 -a 1 -x {2.0 0.0 9 ------- null}
+ -t 0.3598 -s 1 -d 0 -p cbr -e 600 -c 1 -i 31 -a 1 -x {2.0 0.0 9 ------- null}
- -t 0.3598 -s 1 -d 0 -p cbr -e 600 -c 1 -i 31 -a 1 -x {2.0 0.0 9 ------- null}
h -t 0.3598 -s 1 -d 0 -p cbr -e 600 -c 1 -i 31 -a 1 -x {2.0 0.0 -1 ------- null}
r -t 0.3598 -s 3 -d 1 -p cbr -e 600 -c 2 -i 32 -a 2 -x {3.0 1.0 9 ------- null}
+ -t 0.36 -s 2 -d 1 -p cbr -e 600 -c 1 -i 37 -a 1 -x {2.0 0.0 12 ------- null}
- -t 0.36 -s 2 -d 1 -p cbr -e 600 -c 1 -i 37 -a 1 -x {2.0 0.0 12 ------- null}
h -t 0.36 -s 2 -d 1 -p cbr -e 600 -c 1 -i 37 -a 1 -x {2.0 0.0 -1 ------- null}
+ -t 0.36 -s 3 -d 1 -p cbr -e 600 -c 2 -i 38 -a 2 -x {3.0 1.0 12 ------- null}
- -t 0.36 -s 3 -d 1 -p cbr -e 600 -c 2 -i 38 -a 2 -x {3.0 1.0 12 ------- null}
h -t 0.36 -s 3 -d 1 -p cbr -e 600 -c 2 -i 38 -a 2 -x {3.0 1.0 -1 ------- null}
r -t 0.3646 -s 1 -d 0 -p cbr -e 600 -c 1 -i 27 -a 1 -x {2.0 0.0 7 ------- null}
r -t 0.3648 -s 2 -d 1 -p cbr -e 600 -c 1 -i 33 -a 1 -x {2.0 0.0 10 ------- null}
+ -t 0.3648 -s 1 -d 0 -p cbr -e 600 -c 1 -i 33 -a 1 -x {2.0 0.0 10 ------- null}
- -t 0.3648 -s 1 -d 0 -p cbr -e 600 -c 1 -i 33 -a 1 -x {2.0 0.0 10 ------- null}
h -t 0.3648 -s 1 -d 0 -p cbr -e 600 -c 1 -i 33 -a 1 -x {2.0 0.0 -1 ------- null}
r -t 0.3648 -s 3 -d 1 -p cbr -e 600 -c 2 -i 34 -a 2 -x {3.0 1.0 10 ------- null}
+ -t 0.365 -s 2 -d 1 -p cbr -e 600 -c 1 -i 39 -a 1 -x {2.0 0.0 13 ------- null}
- -t 0.365 -s 2 -d 1 -p cbr -e 600 -c 1 -i 39 -a 1 -x {2.0 0.0 13 ------- null}
h -t 0.365 -s 2 -d 1 -p cbr -e 600 -c 1 -i 39 -a 1 -x {2.0 0.0 -1 ------- null}
+ -t 0.365 -s 3 -d 1 -p cbr -e 600 -c 2 -i 40 -a 2 -x {3.0 1.0 13 ------- null}
- -t 0.365 -s 3 -d 1 -p cbr -e 600 -c 2 -i 40 -a 2 -x {3.0 1.0 13 ------- null}
h -t 0.365 -s 3 -d 1 -p cbr -e 600 -c 2 -i 40 -a 2 -x {3.0 1.0 -1 ------- null}
r -t 0.3696 -s 1 -d 0 -p cbr -e 600 -c 1 -i 29 -a 1 -x {2.0 0.0 8 ------- null}
r -t 0.3698 -s 2 -d 1 -p cbr -e 600 -c 1 -i 35 -a 1 -x {2.0 0.0 11 ------- null}
+ -t 0.3698 -s 1 -d 0 -p cbr -e 600 -c 1 -i 35 -a 1 -x {2.0 0.0 11 ------- null}
- -t 0.3698 -s 1 -d 0 -p cbr -e 600 -c 1 -i 35 -a 1 -x {2.0 0.0 11 ------- null}
h -t 0.3698 -s 1 -d 0 -p cbr -e 600 -c 1 -i 35 -a 1 -x {2.0 0.0 -1 ------- null}
r -t 0.3698 -s 3 -d 1 -p cbr -e 600 -c 2 -i 36 -a 2 -x {3.0 1.0 11 ------- null}
+ -t 0.37 -s 2 -d 1 -p cbr -e 600 -c 1 -i 41 -a 1 -x {2.0 0.0 14 ------- null}
- -t 0.37 -s 2 -d 1 -p cbr -e 600 -c 1 -i 41 -a 1 -x {2.0 0.0 14 ------- null}
h -t 0.37 -s 2 -d 1 -p cbr -e 600 -c 1 -i 41 -a 1 -x {2.0 0.0 -1 ------- null}
+ -t 0.37 -s 3 -d 1 -p cbr -e 600 -c 2 -i 42 -a 2 -x {3.0 1.0 14 ------- null}
- -t 0.37 -s 3 -d 1 -p cbr -e 600 -c 2 -i 42 -a 2 -x {3.0 1.0 14 ------- null}
h -t 0.37 -s 3 -d 1 -p cbr -e 600 -c 2 -i 42 -a 2 -x {3.0 1.0 -1 ------- null}
r -t 0.3746 -s 1 -d 0 -p cbr -e 600 -c 1 -i 31 -a 1 -x {2.0 0.0 9 ------- null}
r -t 0.3748 -s 2 -d 1 -p cbr -e 600 -c 1 -i 37 -a 1 -x {2.0 0.0 12 ------- null}
+ -t 0.3748 -s 1 -d 0 -p cbr -e 600 -c 1 -i 37 -a 1 -x {2.0 0.0 12 ------- null}
- -t 0.3748 -s 1 -d 0 -p cbr -e 600 -c 1 -i 37 -a 1 -x {2.0 0.0 12 ------- null}
h -t 0.3748 -s 1 -d 0 -p cbr -e 600 -c 1 -i 37 -a 1 -x {2.0 0.0 -1 ------- null}
r -t 0.3748 -s 3 -d 1 -p cbr -e 600 -c 2 -i 38 -a 2 -x {3.0 1.0 12 ------- null}
+ -t 0.375 -s 2 -d 1 -p cbr -e 600 -c 1 -i 43 -a 1 -x {2.0 0.0 15 ------- null}
- -t 0.375 -s 2 -d 1 -p cbr -e 600 -c 1 -i 43 -a 1 -x {2.0 0.0 15 ------- null}
h -t 0.375 -s 2 -d 1 -p cbr -e 600 -c 1 -i 43 -a 1 -x {2.0 0.0 -1 ------- null}
+ -t 0.375 -s 3 -d 1 -p cbr -e 600 -c 2 -i 44 -a 2 -x {3.0 1.0 15 ------- null}
- -t 0.375 -s 3 -d 1 -p cbr -e 600 -c 2 -i 44 -a 2 -x {3.0 1.0 15 ------- null}
h -t 0.375 -s 3 -d 1 -p cbr -e 600 -c 2 -i 44 -a 2 -x {3.0 1.0 -1 ------- null}
r -t 0.3796 -s 1 -d 0 -p cbr -e 600 -c 1 -i 33 -a 1 -x {2.0 0.0 10 ------- null}
r -t 0.3798 -s 2 -d 1 -p cbr -e 600 -c 1 -i 39 -a 1 -x {2.0 0.0 13 ------- null}
+ -t 0.3798 -s 1 -d 0 -p cbr -e 600 -c 1 -i 39 -a 1 -x {2.0 0.0 13 ------- null}
- -t 0.3798 -s 1 -d 0 -p cbr -e 600 -c 1 -i 39 -a 1 -x {2.0 0.0 13 ------- null}
h -t 0.3798 -s 1 -d 0 -p cbr -e 600 -c 1 -i 39 -a 1 -x {2.0 0.0 -1 ------- null}
r -t 0.3798 -s 3 -d 1 -p cbr -e 600 -c 2 -i 40 -a 2 -x {3.0 1.0 13 ------- null}
+ -t 0.38 -s 2 -d 1 -p cbr -e 600 -c 1 -i 45 -a 1 -x {2.0 0.0 16 ------- null}
- -t 0.38 -s 2 -d 1 -p cbr -e 600 -c 1 -i 45 -a 1 -x {2.0 0.0 16 ------- null}
h -t 0.38 -s 2 -d 1 -p cbr -e 600 -c 1 -i 45 -a 1 -x {2.0 0.0 -1 ------- null}
+ -t 0.38 -s 3 -d 1 -p cbr -e 600 -c 2 -i 46 -a 2 -x {3.0 1.0 16 ------- null}
- -t 0.38 -s 3 -d 1 -p cbr -e 600 -c 2 -i 46 -a 2 -x {3.0 1.0 16 ------- null}
h -t 0.38 -s 3 -d 1 -p cbr -e 600 -c 2 -i 46 -a 2 -x {3.0 1.0 -1 ------- null}
r -t 0.3846 -s 1 -d 0 -p cbr -e 600 -c 1 -i 35 -a 1 -x {2.0 0.0 11 ------- null}
r -t 0.3848 -s 2 -d 1 -p cbr -e 600 -c 1 -i 41 -a 1 -x {2.0 0.0 14 ------- null}
+ -t 0.3848 -s 1 -d 0 -p cbr -e 600 -c 1 -i 41 -a 1 -x {2.0 0.0 14 ------- null}
- -t 0.3848 -s 1 -d 0 -p cbr -e 600 -c 1 -i 41 -a 1 -x {2.0 0.0 14 ------- null}
h -t 0.3848 -s 1 -d 0 -p cbr -e 600 -c 1 -i 41 -a 1 -x {2.0 0.0 -1 ------- null}
r -t 0.3848 -s 3 -d 1 -p cbr -e 600 -c 2 -i 42 -a 2 -x {3.0 1.0 14 ------- null}
+ -t 0.385 -s 2 -d 1 -p cbr -e 600 -c 1 -i 47 -a 1 -x {2.0 0.0 17 ------- null}
- -t 0.385 -s 2 -d 1 -p cbr -e 600 -c 1 -i 47 -a 1 -x {2.0 0.0 17 ------- null}
h -t 0.385 -s 2 -d 1 -p cbr -e 600 -c 1 -i 47 -a 1 -x {2.0 0.0 -1 ------- null}
+ -t 0.385 -s 3 -d 1 -p cbr -e 600 -c 2 -i 48 -a 2 -x {3.0 1.0 17 ------- null}
- -t 0.385 -s 3 -d 1 -p cbr -e 600 -c 2 -i 48 -a 2 -x {3.0 1.0 17 ------- null}
h -t 0.385 -s 3 -d 1 -p cbr -e 600 -c 2 -i 48 -a 2 -x {3.0 1.0 -1 ------- null}
r -t 0.3896 -s 1 -d 0 -p cbr -e 600 -c 1 -i 37 -a 1 -x {2.0 0.0 12 ------- null}
r -t 0.3898 -s 2 -d 1 -p cbr -e 600 -c 1 -i 43 -a 1 -x {2.0 0.0 15 ------- null}
+ -t 0.3898 -s 1 -d 0 -p cbr -e 600 -c 1 -i 43 -a 1 -x {2.0 0.0 15 ------- null}
- -t 0.3898 -s 1 -d 0 -p cbr -e 600 -c 1 -i 43 -a 1 -x {2.0 0.0 15 ------- null}
h -t 0.3898 -s 1 -d 0 -p cbr -e 600 -c 1 -i 43 -a 1 -x {2.0 0.0 -1 ------- null}
r -t 0.3898 -s 3 -d 1 -p cbr -e 600 -c 2 -i 44 -a 2 -x {3.0 1.0 15 ------- null}
+ -t 0.39 -s 2 -d 1 -p cbr -e 600 -c 1 -i 49 -a 1 -x {2.0 0.0 18 ------- null}
- -t 0.39 -s 2 -d 1 -p cbr -e 600 -c 1 -i 49 -a 1 -x {2.0 0.0 18 ------- null}
h -t 0.39 -s 2 -d 1 -p cbr -e 600 -c 1 -i 49 -a 1 -x {2.0 0.0 -1 ------- null}
+ -t 0.39 -s 3 -d 1 -p cbr -e 600 -c 2 -i 50 -a 2 -x {3.0 1.0 18 ------- null}
- -t 0.39 -s 3 -d 1 -p cbr -e 600 -c 2 -i 50 -a 2 -x {3.0 1.0 18 ------- null}
h -t 0.39 -s 3 -d 1 -p cbr -e 600 -c 2 -i 50 -a 2 -x {3.0 1.0 -1 ------- null}
r -t 0.3946 -s 1 -d 0 -p cbr -e 600 -c 1 -i 39 -a 1 -x {2.0 0.0 13 ------- null}
r -t 0.3948 -s 2 -d 1 -p cbr -e 600 -c 1 -i 45 -a 1 -x {2.0 0.0 16 ------- null}
+ -t 0.3948 -s 1 -d 0 -p cbr -e 600 -c 1 -i 45 -a 1 -x {2.0 0.0 16 ------- null}
- -t 0.3948 -s 1 -d 0 -p cbr -e 600 -c 1 -i 45 -a 1 -x {2.0 0.0 16 ------- null}
h -t 0.3948 -s 1 -d 0 -p cbr -e 600 -c 1 -i 45 -a 1 -x {2.0 0.0 -1 ------- null}
r -t 0.3948 -s 3 -d 1 -p cbr -e 600 -c 2 -i 46 -a 2 -x {3.0 1.0 16 ------- null}
+ -t 0.395 -s 2 -d 1 -p cbr -e 600 -c 1 -i 51 -a 1 -x {2.0 0.0 19 ------- null}
- -t 0.395 -s 2 -d 1 -p cbr -e 600 -c 1 -i 51 -a 1 -x {2.0 0.0 19 ------- null}
h -t 0.395 -s 2 -d 1 -p cbr -e 600 -c 1 -i 51 -a 1 -x {2.0 0.0 -1 ------- null}
+ -t 0.395 -s 3 -d 1 -p cbr -e 600 -c 2 -i 52 -a 2 -x {3.0 1.0 19 ------- null}
- -t 0.395 -s 3 -d 1 -p cbr -e 600 -c 2 -i 52 -a 2 -x {3.0 1.0 19 ------- null}
h -t 0.395 -s 3 -d 1 -p cbr -e 600 -c 2 -i 52 -a 2 -x {3.0 1.0 -1 ------- null}
r -t 0.3996 -s 1 -d 0 -p cbr -e 600 -c 1 -i 41 -a 1 -x {2.0 0.0 14 ------- null}
r -t 0.3998 -s 2 -d 1 -p cbr -e 600 -c 1 -i 47 -a 1 -x {2.0 0.0 17 ------- null}
+ -t 0.3998 -s 1 -d 0 -p cbr -e 600 -c 1 -i 47 -a 1 -x {2.0 0.0 17 ------- null}
- -t 0.3998 -s 1 -d 0 -p cbr -e 600 -c 1 -i 47 -a 1 -x {2.0 0.0 17 ------- null}
h -t 0.3998 -s 1 -d 0 -p cbr -e 600 -c 1 -i 47 -a 1 -x {2.0 0.0 -1 ------- null}
r -t 0.3998 -s 3 -d 1 -p cbr -e 600 -c 2 -i 48 -a 2 -x {3.0 1.0 17 ------- null}
+ -t 0.4 -s 2 -d 1 -p cbr -e 600 -c 1 -i 53 -a 1 -x {2.0 0.0 20 ------- null}
- -t 0.4 -s 2 -d 1 -p cbr -e 600 -c 1 -i 53 -a 1 -x {2.0 0.0 20 ------- null}
h -t 0.4 -s 2 -d 1 -p cbr -e 600 -c 1 -i 53 -a 1 -x {2.0 0.0 -1 ------- null}
+ -t 0.4 -s 3 -d 1 -p cbr -e 600 -c 2 -i 54 -a 2 -x {3.0 1.0 20 ------- null}
- -t 0.4 -s 3 -d 1 -p cbr -e 600 -c 2 -i 54 -a 2 -x {3.0 1.0 20 ------- null}
h -t 0.4 -s 3 -d 1 -p cbr -e 600 -c 2 -i 54 -a 2 -x {3.0 1.0 -1 ------- null}
r -t 0.4046 -s 1 -d 0 -p cbr -e 600 -c 1 -i 43 -a 1 -x {2.0 0.0 15 ------- null}
r -t 0.4048 -s 2 -d 1 -p cbr -e 600 -c 1 -i 49 -a 1 -x {2.0 0.0 18 ------- null}
+ -t 0.4048 -s 1 -d 0 -p cbr -e 600 -c 1 -i 49 -a 1 -x {2.0 0.0 18 ------- null}
- -t 0.4048 -s 1 -d 0 -p cbr -e 600 -c 1 -i 49 -a 1 -x {2.0 0.0 18 ------- null}
h -t 0.4048 -s 1 -d 0 -p cbr -e 600 -c 1 -i 49 -a 1 -x {2.0 0.0 -1 ------- null}
r -t 0.4048 -s 3 -d 1 -p cbr -e 600 -c 2 -i 50 -a 2 -x {3.0 1.0 18 ------- null}
+ -t 0.405 -s 2 -d 1 -p cbr -e 600 -c 1 -i 55 -a 1 -x {2.0 0.0 21 ------- null}
- -t 0.405 -s 2 -d 1 -p cbr -e 600 -c 1 -i 55 -a 1 -x {2.0 0.0 21 ------- null}
h -t 0.405 -s 2 -d 1 -p cbr -e 600 -c 1 -i 55 -a 1 -x {2.0 0.0 -1 ------- null}
+ -t 0.405 -s 3 -d 1 -p cbr -e 600 -c 2 -i 56 -a 2 -x {3.0 1.0 21 ------- null}
- -t 0.405 -s 3 -d 1 -p cbr -e 600 -c 2 -i 56 -a 2 -x {3.0 1.0 21 ------- null}
h -t 0.405 -s 3 -d 1 -p cbr -e 600 -c 2 -i 56 -a 2 -x {3.0 1.0 -1 ------- null}
r -t 0.4096 -s 1 -d 0 -p cbr -e 600 -c 1 -i 45 -a 1 -x {2.0 0.0 16 ------- null}
r -t 0.4098 -s 2 -d 1 -p cbr -e 600 -c 1 -i 51 -a 1 -x {2.0 0.0 19 ------- null}
+ -t 0.4098 -s 1 -d 0 -p cbr -e 600 -c 1 -i 51 -a 1 -x {2.0 0.0 19 ------- null}
- -t 0.4098 -s 1 -d 0 -p cbr -e 600 -c 1 -i 51 -a 1 -x {2.0 0.0 19 ------- null}
h -t 0.4098 -s 1 -d 0 -p cbr -e 600 -c 1 -i 51 -a 1 -x {2.0 0.0 -1 ------- null}
r -t 0.4098 -s 3 -d 1 -p cbr -e 600 -c 2 -i 52 -a 2 -x {3.0 1.0 19 ------- null}
+ -t 0.41 -s 2 -d 1 -p cbr -e 600 -c 1 -i 57 -a 1 -x {2.0 0.0 22 ------- null}
- -t 0.41 -s 2 -d 1 -p cbr -e 600 -c 1 -i 57 -a 1 -x {2.0 0.0 22 ------- null}
h -t 0.41 -s 2 -d 1 -p cbr -e 600 -c 1 -i 57 -a 1 -x {2.0 0.0 -1 ------- null}
+ -t 0.41 -s 3 -d 1 -p cbr -e 600 -c 2 -i 58 -a 2 -x {3.0 1.0 22 ------- null}
- -t 0.41 -s 3 -d 1 -p cbr -e 600 -c 2 -i 58 -a 2 -x {3.0 1.0 22 ------- null}
h -t 0.41 -s 3 -d 1 -p cbr -e 600 -c 2 -i 58 -a 2 -x {3.0 1.0 -1 ------- null}
r -t 0.4146 -s 1 -d 0 -p cbr -e 600 -c 1 -i 47 -a 1 -x {2.0 0.0 17 ------- null}
r -t 0.4148 -s 2 -d 1 -p cbr -e 600 -c 1 -i 53 -a 1 -x {2.0 0.0 20 ------- null}
+ -t 0.4148 -s 1 -d 0 -p cbr -e 600 -c 1 -i 53 -a 1 -x {2.0 0.0 20 ------- null}
- -t 0.4148 -s 1 -d 0 -p cbr -e 600 -c 1 -i 53 -a 1 -x {2.0 0.0 20 ------- null}
h -t 0.4148 -s 1 -d 0 -p cbr -e 600 -c 1 -i 53 -a 1 -x {2.0 0.0 -1 ------- null}
r -t 0.4148 -s 3 -d 1 -p cbr -e 600 -c 2 -i 54 -a 2 -x {3.0 1.0 20 ------- null}
+ -t 0.415 -s 2 -d 1 -p cbr -e 600 -c 1 -i 59 -a 1 -x {2.0 0.0 23 ------- null}
- -t 0.415 -s 2 -d 1 -p cbr -e 600 -c 1 -i 59 -a 1 -x {2.0 0.0 23 ------- null}
h -t 0.415 -s 2 -d 1 -p cbr -e 600 -c 1 -i 59 -a 1 -x {2.0 0.0 -1 ------- null}
+ -t 0.415 -s 3 -d 1 -p cbr -e 600 -c 2 -i 60 -a 2 -x {3.0 1.0 23 ------- null}
- -t 0.415 -s 3 -d 1 -p cbr -e 600 -c 2 -i 60 -a 2 -x {3.0 1.0 23 ------- null}
h -t 0.415 -s 3 -d 1 -p cbr -e 600 -c 2 -i 60 -a 2 -x {3.0 1.0 -1 ------- null}
r -t 0.4196 -s 1 -d 0 -p cbr -e 600 -c 1 -i 49 -a 1 -x {2.0 0.0 18 ------- null}
r -t 0.4198 -s 2 -d 1 -p cbr -e 600 -c 1 -i 55 -a 1 -x {2.0 0.0 21 ------- null}
+ -t 0.4198 -s 1 -d 0 -p cbr -e 600 -c 1 -i 55 -a 1 -x {2.0 0.0 21 ------- null}
- -t 0.4198 -s 1 -d 0 -p cbr -e 600 -c 1 -i 55 -a 1 -x {2.0 0.0 21 ------- null}
h -t 0.4198 -s 1 -d 0 -p cbr -e 600 -c 1 -i 55 -a 1 -x {2.0 0.0 -1 ------- null}
r -t 0.4198 -s 3 -d 1 -p cbr -e 600 -c 2 -i 56 -a 2 -x {3.0 1.0 21 ------- null}
+ -t 0.42 -s 2 -d 1 -p cbr -e 600 -c 1 -i 61 -a 1 -x {2.0 0.0 24 ------- null}
- -t 0.42 -s 2 -d 1 -p cbr -e 600 -c 1 -i 61 -a 1 -x {2.0 0.0 24 ------- null}
h -t 0.42 -s 2 -d 1 -p cbr -e 600 -c 1 -i 61 -a 1 -x {2.0 0.0 -1 ------- null}
+ -t 0.42 -s 3 -d 1 -p cbr -e 600 -c 2 -i 62 -a 2 -x {3.0 1.0 24 ------- null}
- -t 0.42 -s 3 -d 1 -p cbr -e 600 -c 2 -i 62 -a 2 -x {3.0 1.0 24 ------- null}
h -t 0.42 -s 3 -d 1 -p cbr -e 600 -c 2 -i 62 -a 2 -x {3.0 1.0 -1 ------- null}
r -t 0.4246 -s 1 -d 0 -p cbr -e 600 -c 1 -i 51 -a 1 -x {2.0 0.0 19 ------- null}
r -t 0.4248 -s 2 -d 1 -p cbr -e 600 -c 1 -i 57 -a 1 -x {2.0 0.0 22 ------- null}
+ -t 0.4248 -s 1 -d 0 -p cbr -e 600 -c 1 -i 57 -a 1 -x {2.0 0.0 22 ------- null}
- -t 0.4248 -s 1 -d 0 -p cbr -e 600 -c 1 -i 57 -a 1 -x {2.0 0.0 22 ------- null}
h -t 0.4248 -s 1 -d 0 -p cbr -e 600 -c 1 -i 57 -a 1 -x {2.0 0.0 -1 ------- null}
r -t 0.4248 -s 3 -d 1 -p cbr -e 600 -c 2 -i 58 -a 2 -x {3.0 1.0 22 ------- null}
+ -t 0.425 -s 2 -d 1 -p cbr -e 600 -c 1 -i 63 -a 1 -x {2.0 0.0 25 ------- null}
- -t 0.425 -s 2 -d 1 -p cbr -e 600 -c 1 -i 63 -a 1 -x {2.0 0.0 25 ------- null}
h -t 0.425 -s 2 -d 1 -p cbr -e 600 -c 1 -i 63 -a 1 -x {2.0 0.0 -1 ------- null}
+ -t 0.425 -s 3 -d 1 -p cbr -e 600 -c 2 -i 64 -a 2 -x {3.0 1.0 25 ------- null}
- -t 0.425 -s 3 -d 1 -p cbr -e 600 -c 2 -i 64 -a 2 -x {3.0 1.0 25 ------- null}
h -t 0.425 -s 3 -d 1 -p cbr -e 600 -c 2 -i 64 -a 2 -x {3.0 1.0 -1 ------- null}
r -t 0.4296 -s 1 -d 0 -p cbr -e 600 -c 1 -i 53 -a 1 -x {2.0 0.0 20 ------- null}
r -t 0.4298 -s 2 -d 1 -p cbr -e 600 -c 1 -i 59 -a 1 -x {2.0 0.0 23 ------- null}
+ -t 0.4298 -s 1 -d 0 -p cbr -e 600 -c 1 -i 59 -a 1 -x {2.0 0.0 23 ------- null}
- -t 0.4298 -s 1 -d 0 -p cbr -e 600 -c 1 -i 59 -a 1 -x {2.0 0.0 23 ------- null}
h -t 0.4298 -s 1 -d 0 -p cbr -e 600 -c 1 -i 59 -a 1 -x {2.0 0.0 -1 ------- null}
r -t 0.4298 -s 3 -d 1 -p cbr -e 600 -c 2 -i 60 -a 2 -x {3.0 1.0 23 ------- null}
+ -t 0.43 -s 2 -d 1 -p cbr -e 600 -c 1 -i 65 -a 1 -x {2.0 0.0 26 ------- null}
- -t 0.43 -s 2 -d 1 -p cbr -e 600 -c 1 -i 65 -a 1 -x {2.0 0.0 26 ------- null}
h -t 0.43 -s 2 -d 1 -p cbr -e 600 -c 1 -i 65 -a 1 -x {2.0 0.0 -1 ------- null}
+ -t 0.43 -s 3 -d 1 -p cbr -e 600 -c 2 -i 66 -a 2 -x {3.0 1.0 26 ------- null}
- -t 0.43 -s 3 -d 1 -p cbr -e 600 -c 2 -i 66 -a 2 -x {3.0 1.0 26 ------- null}
h -t 0.43 -s 3 -d 1 -p cbr -e 600 -c 2 -i 66 -a 2 -x {3.0 1.0 -1 ------- null}
r -t 0.4346 -s 1 -d 0 -p cbr -e 600 -c 1 -i 55 -a 1 -x {2.0 0.0 21 ------- null}
r -t 0.4348 -s 2 -d 1 -p cbr -e 600 -c 1 -i 61 -a 1 -x {2.0 0.0 24 ------- null}
+ -t 0.4348 -s 1 -d 0 -p cbr -e 600 -c 1 -i 61 -a 1 -x {2.0 0.0 24 ------- null}