+ 0.00017 0 1 rtProtoDV 4 ------- 0 0.2 1.2 -1 0
- 0.00017 0 1 rtProtoDV 4 ------- 0 0.2 1.2 -1 0
+ 0.007102 2 1 rtProtoDV 4 ------- 0 2.2 1.2 -1 1
- 0.007102 2 1 rtProtoDV 4 ------- 0 2.2 1.2 -1 1
+ 0.007102 2 3 rtProtoDV 4 ------- 0 2.2 3.2 -1 2
- 0.007102 2 3 rtProtoDV 4 ------- 0 2.2 3.2 -1 2
r 0.010202 0 1 rtProtoDV 4 ------- 0 0.2 1.2 -1 0
r 0.017134 2 1 rtProtoDV 4 ------- 0 2.2 1.2 -1 1
r 0.017134 2 3 rtProtoDV 4 ------- 0 2.2 3.2 -1 2
+ 0.044061 3 1 rtProtoDV 4 ------- 0 3.2 1.2 -1 3
- 0.044061 3 1 rtProtoDV 4 ------- 0 3.2 1.2 -1 3
+ 0.044061 3 2 rtProtoDV 4 ------- 0 3.2 2.2 -1 4
- 0.044061 3 2 rtProtoDV 4 ------- 0 3.2 2.2 -1 4
r 0.054093 3 1 rtProtoDV 4 ------- 0 3.2 1.2 -1 3
r 0.054093 3 2 rtProtoDV 4 ------- 0 3.2 2.2 -1 4
+ 0.27794 1 0 rtProtoDV 4 ------- 0 1.2 0.2 -1 5
- 0.27794 1 0 rtProtoDV 4 ------- 0 1.2 0.2 -1 5
+ 0.27794 1 2 rtProtoDV 4 ------- 0 1.2 2.2 -1 6
- 0.27794 1 2 rtProtoDV 4 ------- 0 1.2 2.2 -1 6
+ 0.27794 1 3 rtProtoDV 4 ------- 0 1.2 3.2 -1 7
- 0.27794 1 3 rtProtoDV 4 ------- 0 1.2 3.2 -1 7
r 0.287972 1 0 rtProtoDV 4 ------- 0 1.2 0.2 -1 5
+ 0.287972 0 1 rtProtoDV 4 ------- 0 0.2 1.2 -1 8
- 0.287972 0 1 rtProtoDV 4 ------- 0 0.2 1.2 -1 8
r 0.287972 1 2 rtProtoDV 4 ------- 0 1.2 2.2 -1 6
+ 0.287972 2 1 rtProtoDV 4 ------- 0 2.2 1.2 -1 9
- 0.287972 2 1 rtProtoDV 4 ------- 0 2.2 1.2 -1 9
+ 0.287972 2 3 rtProtoDV 4 ------- 0 2.2 3.2 -1 10
- 0.287972 2 3 rtProtoDV 4 ------- 0 2.2 3.2 -1 10
r 0.287972 1 3 rtProtoDV 4 ------- 0 1.2 3.2 -1 7
+ 0.287972 3 1 rtProtoDV 4 ------- 0 3.2 1.2 -1 11
- 0.287972 3 1 rtProtoDV 4 ------- 0 3.2 1.2 -1 11
+ 0.287972 3 2 rtProtoDV 4 ------- 0 3.2 2.2 -1 12
- 0.287972 3 2 rtProtoDV 4 ------- 0 3.2 2.2 -1 12
r 0.298004 0 1 rtProtoDV 4 ------- 0 0.2 1.2 -1 8
r 0.298004 2 1 rtProtoDV 4 ------- 0 2.2 1.2 -1 9
r 0.298004 2 3 rtProtoDV 4 ------- 0 2.2 3.2 -1 10
r 0.298004 3 1 rtProtoDV 4 ------- 0 3.2 1.2 -1 11
r 0.298004 3 2 rtProtoDV 4 ------- 0 3.2 2.2 -1 12
+ 0.3 2 1 cbr 600 ------- 1 2.0 0.0 0 13
- 0.3 2 1 cbr 600 ------- 1 2.0 0.0 0 13
+ 0.3 3 1 cbr 600 ------- 2 3.0 1.0 0 14
- 0.3 3 1 cbr 600 ------- 2 3.0 1.0 0 14
+ 0.305 2 1 cbr 600 ------- 1 2.0 0.0 1 15
- 0.305 2 1 cbr 600 ------- 1 2.0 0.0 1 15
+ 0.305 3 1 cbr 600 ------- 2 3.0 1.0 1 16
- 0.305 3 1 cbr 600 ------- 2 3.0 1.0 1 16
+ 0.31 2 1 cbr 600 ------- 1 2.0 0.0 2 17
- 0.31 2 1 cbr 600 ------- 1 2.0 0.0 2 17
+ 0.31 3 1 cbr 600 ------- 2 3.0 1.0 2 18
- 0.31 3 1 cbr 600 ------- 2 3.0 1.0 2 18
r 0.3148 2 1 cbr 600 ------- 1 2.0 0.0 0 13
+ 0.3148 1 0 cbr 600 ------- 1 2.0 0.0 0 13
- 0.3148 1 0 cbr 600 ------- 1 2.0 0.0 0 13
r 0.3148 3 1 cbr 600 ------- 2 3.0 1.0 0 14
+ 0.315 2 1 cbr 600 ------- 1 2.0 0.0 3 19
- 0.315 2 1 cbr 600 ------- 1 2.0 0.0 3 19
+ 0.315 3 1 cbr 600 ------- 2 3.0 1.0 3 20
- 0.315 3 1 cbr 600 ------- 2 3.0 1.0 3 20
r 0.3198 2 1 cbr 600 ------- 1 2.0 0.0 1 15
+ 0.3198 1 0 cbr 600 ------- 1 2.0 0.0 1 15
- 0.3198 1 0 cbr 600 ------- 1 2.0 0.0 1 15
r 0.3198 3 1 cbr 600 ------- 2 3.0 1.0 1 16
+ 0.32 2 1 cbr 600 ------- 1 2.0 0.0 4 21
- 0.32 2 1 cbr 600 ------- 1 2.0 0.0 4 21
+ 0.32 3 1 cbr 600 ------- 2 3.0 1.0 4 22
- 0.32 3 1 cbr 600 ------- 2 3.0 1.0 4 22
r 0.3248 2 1 cbr 600 ------- 1 2.0 0.0 2 17
+ 0.3248 1 0 cbr 600 ------- 1 2.0 0.0 2 17
- 0.3248 1 0 cbr 600 ------- 1 2.0 0.0 2 17
r 0.3248 3 1 cbr 600 ------- 2 3.0 1.0 2 18
+ 0.325 2 1 cbr 600 ------- 1 2.0 0.0 5 23
- 0.325 2 1 cbr 600 ------- 1 2.0 0.0 5 23
+ 0.325 3 1 cbr 600 ------- 2 3.0 1.0 5 24
- 0.325 3 1 cbr 600 ------- 2 3.0 1.0 5 24
r 0.3296 1 0 cbr 600 ------- 1 2.0 0.0 0 13
r 0.3298 2 1 cbr 600 ------- 1 2.0 0.0 3 19
+ 0.3298 1 0 cbr 600 ------- 1 2.0 0.0 3 19
- 0.3298 1 0 cbr 600 ------- 1 2.0 0.0 3 19
r 0.3298 3 1 cbr 600 ------- 2 3.0 1.0 3 20
+ 0.33 2 1 cbr 600 ------- 1 2.0 0.0 6 25
- 0.33 2 1 cbr 600 ------- 1 2.0 0.0 6 25
+ 0.33 3 1 cbr 600 ------- 2 3.0 1.0 6 26
- 0.33 3 1 cbr 600 ------- 2 3.0 1.0 6 26
r 0.3346 1 0 cbr 600 ------- 1 2.0 0.0 1 15
r 0.3348 2 1 cbr 600 ------- 1 2.0 0.0 4 21
+ 0.3348 1 0 cbr 600 ------- 1 2.0 0.0 4 21
- 0.3348 1 0 cbr 600 ------- 1 2.0 0.0 4 21
r 0.3348 3 1 cbr 600 ------- 2 3.0 1.0 4 22
+ 0.335 2 1 cbr 600 ------- 1 2.0 0.0 7 27
- 0.335 2 1 cbr 600 ------- 1 2.0 0.0 7 27
+ 0.335 3 1 cbr 600 ------- 2 3.0 1.0 7 28
- 0.335 3 1 cbr 600 ------- 2 3.0 1.0 7 28
r 0.3396 1 0 cbr 600 ------- 1 2.0 0.0 2 17
r 0.3398 2 1 cbr 600 ------- 1 2.0 0.0 5 23
+ 0.3398 1 0 cbr 600 ------- 1 2.0 0.0 5 23
- 0.3398 1 0 cbr 600 ------- 1 2.0 0.0 5 23
r 0.3398 3 1 cbr 600 ------- 2 3.0 1.0 5 24
+ 0.34 2 1 cbr 600 ------- 1 2.0 0.0 8 29
- 0.34 2 1 cbr 600 ------- 1 2.0 0.0 8 29
+ 0.34 3 1 cbr 600 ------- 2 3.0 1.0 8 30
- 0.34 3 1 cbr 600 ------- 2 3.0 1.0 8 30
r 0.3446 1 0 cbr 600 ------- 1 2.0 0.0 3 19
r 0.3448 2 1 cbr 600 ------- 1 2.0 0.0 6 25
+ 0.3448 1 0 cbr 600 ------- 1 2.0 0.0 6 25
- 0.3448 1 0 cbr 600 ------- 1 2.0 0.0 6 25
r 0.3448 3 1 cbr 600 ------- 2 3.0 1.0 6 26
+ 0.345 2 1 cbr 600 ------- 1 2.0 0.0 9 31
- 0.345 2 1 cbr 600 ------- 1 2.0 0.0 9 31
+ 0.345 3 1 cbr 600 ------- 2 3.0 1.0 9 32
- 0.345 3 1 cbr 600 ------- 2 3.0 1.0 9 32
r 0.3496 1 0 cbr 600 ------- 1 2.0 0.0 4 21
r 0.3498 2 1 cbr 600 ------- 1 2.0 0.0 7 27
+ 0.3498 1 0 cbr 600 ------- 1 2.0 0.0 7 27
- 0.3498 1 0 cbr 600 ------- 1 2.0 0.0 7 27
r 0.3498 3 1 cbr 600 ------- 2 3.0 1.0 7 28
+ 0.35 2 1 cbr 600 ------- 1 2.0 0.0 10 33
- 0.35 2 1 cbr 600 ------- 1 2.0 0.0 10 33
+ 0.35 3 1 cbr 600 ------- 2 3.0 1.0 10 34
- 0.35 3 1 cbr 600 ------- 2 3.0 1.0 10 34
r 0.3546 1 0 cbr 600 ------- 1 2.0 0.0 5 23
r 0.3548 2 1 cbr 600 ------- 1 2.0 0.0 8 29
+ 0.3548 1 0 cbr 600 ------- 1 2.0 0.0 8 29
- 0.3548 1 0 cbr 600 ------- 1 2.0 0.0 8 29
r 0.3548 3 1 cbr 600 ------- 2 3.0 1.0 8 30
+ 0.355 2 1 cbr 600 ------- 1 2.0 0.0 11 35
- 0.355 2 1 cbr 600 ------- 1 2.0 0.0 11 35
+ 0.355 3 1 cbr 600 ------- 2 3.0 1.0 11 36
- 0.355 3 1 cbr 600 ------- 2 3.0 1.0 11 36
r 0.3596 1 0 cbr 600 ------- 1 2.0 0.0 6 25
r 0.3598 2 1 cbr 600 ------- 1 2.0 0.0 9 31
+ 0.3598 1 0 cbr 600 ------- 1 2.0 0.0 9 31
- 0.3598 1 0 cbr 600 ------- 1 2.0 0.0 9 31
r 0.3598 3 1 cbr 600 ------- 2 3.0 1.0 9 32
+ 0.36 2 1 cbr 600 ------- 1 2.0 0.0 12 37
- 0.36 2 1 cbr 600 ------- 1 2.0 0.0 12 37
+ 0.36 3 1 cbr 600 ------- 2 3.0 1.0 12 38
- 0.36 3 1 cbr 600 ------- 2 3.0 1.0 12 38
r 0.3646 1 0 cbr 600 ------- 1 2.0 0.0 7 27
r 0.3648 2 1 cbr 600 ------- 1 2.0 0.0 10 33
+ 0.3648 1 0 cbr 600 ------- 1 2.0 0.0 10 33
- 0.3648 1 0 cbr 600 ------- 1 2.0 0.0 10 33
r 0.3648 3 1 cbr 600 ------- 2 3.0 1.0 10 34
+ 0.365 2 1 cbr 600 ------- 1 2.0 0.0 13 39
- 0.365 2 1 cbr 600 ------- 1 2.0 0.0 13 39
+ 0.365 3 1 cbr 600 ------- 2 3.0 1.0 13 40
- 0.365 3 1 cbr 600 ------- 2 3.0 1.0 13 40
r 0.3696 1 0 cbr 600 ------- 1 2.0 0.0 8 29
r 0.3698 2 1 cbr 600 ------- 1 2.0 0.0 11 35
+ 0.3698 1 0 cbr 600 ------- 1 2.0 0.0 11 35
- 0.3698 1 0 cbr 600 ------- 1 2.0 0.0 11 35
r 0.3698 3 1 cbr 600 ------- 2 3.0 1.0 11 36
+ 0.37 2 1 cbr 600 ------- 1 2.0 0.0 14 41
- 0.37 2 1 cbr 600 ------- 1 2.0 0.0 14 41
+ 0.37 3 1 cbr 600 ------- 2 3.0 1.0 14 42
- 0.37 3 1 cbr 600 ------- 2 3.0 1.0 14 42
r 0.3746 1 0 cbr 600 ------- 1 2.0 0.0 9 31
r 0.3748 2 1 cbr 600 ------- 1 2.0 0.0 12 37
+ 0.3748 1 0 cbr 600 ------- 1 2.0 0.0 12 37
- 0.3748 1 0 cbr 600 ------- 1 2.0 0.0 12 37
r 0.3748 3 1 cbr 600 ------- 2 3.0 1.0 12 38
+ 0.375 2 1 cbr 600 ------- 1 2.0 0.0 15 43
- 0.375 2 1 cbr 600 ------- 1 2.0 0.0 15 43
+ 0.375 3 1 cbr 600 ------- 2 3.0 1.0 15 44
- 0.375 3 1 cbr 600 ------- 2 3.0 1.0 15 44
r 0.3796 1 0 cbr 600 ------- 1 2.0 0.0 10 33
r 0.3798 2 1 cbr 600 ------- 1 2.0 0.0 13 39
+ 0.3798 1 0 cbr 600 ------- 1 2.0 0.0 13 39
- 0.3798 1 0 cbr 600 ------- 1 2.0 0.0 13 39
r 0.3798 3 1 cbr 600 ------- 2 3.0 1.0 13 40
+ 0.38 2 1 cbr 600 ------- 1 2.0 0.0 16 45
- 0.38 2 1 cbr 600 ------- 1 2.0 0.0 16 45
+ 0.38 3 1 cbr 600 ------- 2 3.0 1.0 16 46
- 0.38 3 1 cbr 600 ------- 2 3.0 1.0 16 46
r 0.3846 1 0 cbr 600 ------- 1 2.0 0.0 11 35
r 0.3848 2 1 cbr 600 ------- 1 2.0 0.0 14 41
+ 0.3848 1 0 cbr 600 ------- 1 2.0 0.0 14 41
- 0.3848 1 0 cbr 600 ------- 1 2.0 0.0 14 41
r 0.3848 3 1 cbr 600 ------- 2 3.0 1.0 14 42
+ 0.385 2 1 cbr 600 ------- 1 2.0 0.0 17 47
- 0.385 2 1 cbr 600 ------- 1 2.0 0.0 17 47
+ 0.385 3 1 cbr 600 ------- 2 3.0 1.0 17 48
- 0.385 3 1 cbr 600 ------- 2 3.0 1.0 17 48
r 0.3896 1 0 cbr 600 ------- 1 2.0 0.0 12 37
r 0.3898 2 1 cbr 600 ------- 1 2.0 0.0 15 43
+ 0.3898 1 0 cbr 600 ------- 1 2.0 0.0 15 43
- 0.3898 1 0 cbr 600 ------- 1 2.0 0.0 15 43
r 0.3898 3 1 cbr 600 ------- 2 3.0 1.0 15 44
+ 0.39 2 1 cbr 600 ------- 1 2.0 0.0 18 49
- 0.39 2 1 cbr 600 ------- 1 2.0 0.0 18 49
+ 0.39 3 1 cbr 600 ------- 2 3.0 1.0 18 50
- 0.39 3 1 cbr 600 ------- 2 3.0 1.0 18 50
r 0.3946 1 0 cbr 600 ------- 1 2.0 0.0 13 39
r 0.3948 2 1 cbr 600 ------- 1 2.0 0.0 16 45
+ 0.3948 1 0 cbr 600 ------- 1 2.0 0.0 16 45
- 0.3948 1 0 cbr 600 ------- 1 2.0 0.0 16 45
r 0.3948 3 1 cbr 600 ------- 2 3.0 1.0 16 46
+ 0.395 2 1 cbr 600 ------- 1 2.0 0.0 19 51
- 0.395 2 1 cbr 600 ------- 1 2.0 0.0 19 51
+ 0.395 3 1 cbr 600 ------- 2 3.0 1.0 19 52
- 0.395 3 1 cbr 600 ------- 2 3.0 1.0 19 52
r 0.3996 1 0 cbr 600 ------- 1 2.0 0.0 14 41
r 0.3998 2 1 cbr 600 ------- 1 2.0 0.0 17 47
+ 0.3998 1 0 cbr 600 ------- 1 2.0 0.0 17 47
- 0.3998 1 0 cbr 600 ------- 1 2.0 0.0 17 47
r 0.3998 3 1 cbr 600 ------- 2 3.0 1.0 17 48
+ 0.4 2 1 cbr 600 ------- 1 2.0 0.0 20 53
- 0.4 2 1 cbr 600 ------- 1 2.0 0.0 20 53
+ 0.4 3 1 cbr 600 ------- 2 3.0 1.0 20 54
- 0.4 3 1 cbr 600 ------- 2 3.0 1.0 20 54
r 0.4046 1 0 cbr 600 ------- 1 2.0 0.0 15 43
r 0.4048 2 1 cbr 600 ------- 1 2.0 0.0 18 49
+ 0.4048 1 0 cbr 600 ------- 1 2.0 0.0 18 49
- 0.4048 1 0 cbr 600 ------- 1 2.0 0.0 18 49
r 0.4048 3 1 cbr 600 ------- 2 3.0 1.0 18 50
+ 0.405 2 1 cbr 600 ------- 1 2.0 0.0 21 55
- 0.405 2 1 cbr 600 ------- 1 2.0 0.0 21 55
+ 0.405 3 1 cbr 600 ------- 2 3.0 1.0 21 56
- 0.405 3 1 cbr 600 ------- 2 3.0 1.0 21 56
r 0.4096 1 0 cbr 600 ------- 1 2.0 0.0 16 45
r 0.4098 2 1 cbr 600 ------- 1 2.0 0.0 19 51
+ 0.4098 1 0 cbr 600 ------- 1 2.0 0.0 19 51
- 0.4098 1 0 cbr 600 ------- 1 2.0 0.0 19 51
r 0.4098 3 1 cbr 600 ------- 2 3.0 1.0 19 52
+ 0.41 2 1 cbr 600 ------- 1 2.0 0.0 22 57
- 0.41 2 1 cbr 600 ------- 1 2.0 0.0 22 57
+ 0.41 3 1 cbr 600 ------- 2 3.0 1.0 22 58
- 0.41 3 1 cbr 600 ------- 2 3.0 1.0 22 58
r 0.4146 1 0 cbr 600 ------- 1 2.0 0.0 17 47
r 0.4148 2 1 cbr 600 ------- 1 2.0 0.0 20 53
+ 0.4148 1 0 cbr 600 ------- 1 2.0 0.0 20 53
- 0.4148 1 0 cbr 600 ------- 1 2.0 0.0 20 53
r 0.4148 3 1 cbr 600 ------- 2 3.0 1.0 20 54
+ 0.415 2 1 cbr 600 ------- 1 2.0 0.0 23 59
- 0.415 2 1 cbr 600 ------- 1 2.0 0.0 23 59
+ 0.415 3 1 cbr 600 ------- 2 3.0 1.0 23 60
- 0.415 3 1 cbr 600 ------- 2 3.0 1.0 23 60
r 0.4196 1 0 cbr 600 ------- 1 2.0 0.0 18 49
r 0.4198 2 1 cbr 600 ------- 1 2.0 0.0 21 55
+ 0.4198 1 0 cbr 600 ------- 1 2.0 0.0 21 55
- 0.4198 1 0 cbr 600 ------- 1 2.0 0.0 21 55
r 0.4198 3 1 cbr 600 ------- 2 3.0 1.0 21 56
+ 0.42 2 1 cbr 600 ------- 1 2.0 0.0 24 61
- 0.42 2 1 cbr 600 ------- 1 2.0 0.0 24 61
+ 0.42 3 1 cbr 600 ------- 2 3.0 1.0 24 62
- 0.42 3 1 cbr 600 ------- 2 3.0 1.0 24 62
r 0.4246 1 0 cbr 600 ------- 1 2.0 0.0 19 51
r 0.4248 2 1 cbr 600 ------- 1 2.0 0.0 22 57
+ 0.4248 1 0 cbr 600 ------- 1 2.0 0.0 22 57
- 0.4248 1 0 cbr 600 ------- 1 2.0 0.0 22 57
r 0.4248 3 1 cbr 600 ------- 2 3.0 1.0 22 58
+ 0.425 2 1 cbr 600 ------- 1 2.0 0.0 25 63
- 0.425 2 1 cbr 600 ------- 1 2.0 0.0 25 63
+ 0.425 3 1 cbr 600 ------- 2 3.0 1.0 25 64
- 0.425 3 1 cbr 600 ------- 2 3.0 1.0 25 64
r 0.4296 1 0 cbr 600 ------- 1 2.0 0.0 20 53
r 0.4298 2 1 cbr 600 ------- 1 2.0 0.0 23 59
+ 0.4298 1 0 cbr 600 ------- 1 2.0 0.0 23 59
- 0.4298 1 0 cbr 600 ------- 1 2.0 0.0 23 59
r 0.4298 3 1 cbr 600 ------- 2 3.0 1.0 23 60
+ 0.43 2 1 cbr 600 ------- 1 2.0 0.0 26 65
- 0.43 2 1 cbr 600 ------- 1 2.0 0.0 26 65
+ 0.43 3 1 cbr 600 ------- 2 3.0 1.0 26 66
- 0.43 3 1 cbr 600 ------- 2 3.0 1.0 26 66
r 0.4346 1 0 cbr 600 ------- 1 2.0 0.0 21 55
r 0.4348 2 1 cbr 600 ------- 1 2.0 0.0 24 61
+ 0.4348 1 0 cbr 600 ------- 1 2.0 0.0 24 61
- 0.4348 1 0 cbr 600 ------- 1 2.0 0.0 24 61
r 0.4348 3 1 cbr 600 ------- 2 3.0 1.0 24 62
+ 0.435 2 1 cbr 600 ------- 1 2.0 0.0 27 67
- 0.435 2 1 cbr 600 ------- 1 2.0 0.0 27 67
+ 0.435 3 1 cbr 600 ------- 2 3.0 1.0 27 68
- 0.435 3 1 cbr 600 ------- 2 3.0 1.0 27 68
r 0.4396 1 0 cbr 600 ------- 1 2.0 0.0 22 57
r 0.4398 2 1 cbr 600 ------- 1 2.0 0.0 25 63
+ 0.4398 1 0 cbr 600 ------- 1 2.0 0.0 25 63
- 0.4398 1 0 cbr 600 ------- 1 2.0 0.0 25 63
r 0.4398 3 1 cbr 600 ------- 2 3.0 1.0 25 64
+ 0.44 2 1 cbr 600 ------- 1 2.0 0.0 28 69
- 0.44 2 1 cbr 600 ------- 1 2.0 0.0 28 69
+ 0.44 3 1 cbr 600 ------- 2 3.0 1.0 28 70
- 0.44 3 1 cbr 600 ------- 2 3.0 1.0 28 70
r 0.4446 1 0 cbr 600 ------- 1 2.0 0.0 23 59
r 0.4448 2 1 cbr 600 ------- 1 2.0 0.0 26 65
+ 0.4448 1 0 cbr 600 ------- 1 2.0 0.0 26 65
- 0.4448 1 0 cbr 600 ------- 1 2.0 0.0 26 65
r 0.4448 3 1 cbr 600 ------- 2 3.0 1.0 26 66
+ 0.445 2 1 cbr 600 ------- 1 2.0 0.0 29 71
- 0.445 2 1 cbr 600 ------- 1 2.0 0.0 29 71
+ 0.445 3 1 cbr 600 ------- 2 3.0 1.0 29 72
- 0.445 3 1 cbr 600 ------- 2 3.0 1.0 29 72
r 0.4496 1 0 cbr 600 ------- 1 2.0 0.0 24 61
r 0.4498 2 1 cbr 600 ------- 1 2.0 0.0 27 67
+ 0.4498 1 0 cbr 600 ------- 1 2.0 0.0 27 67
- 0.4498 1 0 cbr 600 ------- 1 2.0 0.0 27 67
r 0.4498 3 1 cbr 600 ------- 2 3.0 1.0 27 68
+ 0.45 2 1 cbr 600 ------- 1 2.0 0.0 30 73
- 0.45 2 1 cbr 600 ------- 1 2.0 0.0 30 73
+ 0.45 3 1 cbr 600 ------- 2 3.0 1.0 30 74
- 0.45 3 1 cbr 600 ------- 2 3.0 1.0 30 74
r 0.4546 1 0 cbr 600 ------- 1 2.0 0.0 25 63
r 0.4548 2 1 cbr 600 ------- 1 2.0 0.0 28 69
+ 0.4548 1 0 cbr 600 ------- 1 2.0 0.0 28 69
- 0.4548 1 0 cbr 600 ------- 1 2.0 0.0 28 69
r 0.4548 3 1 cbr 600 ------- 2 3.0 1.0 28 70
+ 0.455 2 1 cbr 600 ------- 1 2.0 0.0 31 75
- 0.455 2 1 cbr 600 ------- 1 2.0 0.0 31 75
+ 0.455 3 1 cbr 600 ------- 2 3.0 1.0 31 76
- 0.455 3 1 cbr 600 ------- 2 3.0 1.0 31 76
r 0.4596 1 0 cbr 600 ------- 1 2.0 0.0 26 65
r 0.4598 2 1 cbr 600 ------- 1 2.0 0.0 29 71
+ 0.4598 1 0 cbr 600 ------- 1 2.0 0.0 29 71
- 0.4598 1 0 cbr 600 ------- 1 2.0 0.0 29 71
r 0.4598 3 1 cbr 600 ------- 2 3.0 1.0 29 72
+ 0.46 2 1 cbr 600 ------- 1 2.0 0.0 32 77
- 0.46 2 1 cbr 600 ------- 1 2.0 0.0 32 77
+ 0.46 3 1 cbr 600 ------- 2 3.0 1.0 32 78
- 0.46 3 1 cbr 600 ------- 2 3.0 1.0 32 78
r 0.4646 1 0 cbr 600 ------- 1 2.0 0.0 27 67
r 0.4648 2 1 cbr 600 ------- 1 2.0 0.0 30 73
+ 0.4648 1 0 cbr 600 ------- 1 2.0 0.0 30 73
- 0.4648 1 0 cbr 600 ------- 1 2.0 0.0 30 73
r 0.4648 3 1 cbr 600 ------- 2 3.0 1.0 30 74
+ 0.465 2 1 cbr 600 ------- 1 2.0 0.0 33 79
- 0.465 2 1 cbr 600 ------- 1 2.0 0.0 33 79
+ 0.465 3 1 cbr 600 ------- 2 3.0 1.0 33 80
- 0.465 3 1 cbr 600 ------- 2 3.0 1.0 33 80
r 0.4696 1 0 cbr 600 ------- 1 2.0 0.0 28 69
r 0.4698 2 1 cbr 600 ------- 1 2.0 0.0 31 75
+ 0.4698 1 0 cbr 600 ------- 1 2.0 0.0 31 75
- 0.4698 1 0 cbr 600 ------- 1 2.0 0.0 31 75
r 0.4698 3 1 cbr 600 ------- 2 3.0 1.0 31 76
+ 0.47 2 1 cbr 600 ------- 1 2.0 0.0 34 81
- 0.47 2 1 cbr 600 ------- 1 2.0 0.0 34 81
+ 0.47 3 1 cbr 600 ------- 2 3.0 1.0 34 82
- 0.47 3 1 cbr 600 ------- 2 3.0 1.0 34 82
r 0.4746 1 0 cbr 600 ------- 1 2.0 0.0 29 71
r 0.4748 2 1 cbr 600 ------- 1 2.0 0.0 32 77
+ 0.4748 1 0 cbr 600 ------- 1 2.0 0.0 32 77
- 0.4748 1 0 cbr 600 ------- 1 2.0 0.0 32 77
r 0.4748 3 1 cbr 600 ------- 2 3.0 1.0 32 78
+ 0.475 2 1 cbr 600 ------- 1 2.0 0.0 35 83
- 0.475 2 1 cbr 600 ------- 1 2.0 0.0 35 83
+ 0.475 3 1 cbr 600 ------- 2 3.0 1.0 35 84
- 0.475 3 1 cbr 600 ------- 2 3.0 1.0 35 84
r 0.4796 1 0 cbr 600 ------- 1 2.0 0.0 30 73
r 0.4798 2 1 cbr 600 ------- 1 2.0 0.0 33 79
+ 0.4798 1 0 cbr 600 ------- 1 2.0 0.0 33 79
- 0.4798 1 0 cbr 600 ------- 1 2.0 0.0 33 79
r 0.4798 3 1 cbr 600 ------- 2 3.0 1.0 33 80
+ 0.48 2 1 cbr 600 ------- 1 2.0 0.0 36 85
- 0.48 2 1 cbr 600 ------- 1 2.0 0.0 36 85
+ 0.48 3 1 cbr 600 ------- 2 3.0 1.0 36 86
- 0.48 3 1 cbr 600 ------- 2 3.0 1.0 36 86
r 0.4846 1 0 cbr 600 ------- 1 2.0 0.0 31 75
r 0.4848 2 1 cbr 600 ------- 1 2.0 0.0 34 81
+ 0.4848 1 0 cbr 600 ------- 1 2.0 0.0 34 81
- 0.4848 1 0 cbr 600 ------- 1 2.0 0.0 34 81
r 0.4848 3 1 cbr 600 ------- 2 3.0 1.0 34 82
+ 0.485 2 1 cbr 600 ------- 1 2.0 0.0 37 87
- 0.485 2 1 cbr 600 ------- 1 2.0 0.0 37 87
+ 0.485 3 1 cbr 600 ------- 2 3.0 1.0 37 88
- 0.485 3 1 cbr 600 ------- 2 3.0 1.0 37 88
r 0.4896 1 0 cbr 600 ------- 1 2.0 0.0 32 77
r 0.4898 2 1 cbr 600 ------- 1 2.0 0.0 35 83
+ 0.4898 1 0 cbr 600 ------- 1 2.0 0.0 35 83
- 0.4898 1 0 cbr 600 ------- 1 2.0 0.0 35 83
r 0.4898 3 1 cbr 600 ------- 2 3.0 1.0 35 84
+ 0.49 2 1 cbr 600 ------- 1 2.0 0.0 38 89
- 0.49 2 1 cbr 600 ------- 1 2.0 0.0 38 89
+ 0.49 3 1 cbr 600 ------- 2 3.0 1.0 38 90
- 0.49 3 1 cbr 600 ------- 2 3.0 1.0 38 90
r 0.4946 1 0 cbr 600 ------- 1 2.0 0.0 33 79
r 0.4948 2 1 cbr 600 ------- 1 2.0 0.0 36 85
+ 0.4948 1 0 cbr 600 ------- 1 2.0 0.0 36 85
- 0.4948 1 0 cbr 600 ------- 1 2.0 0.0 36 85
r 0.4948 3 1 cbr 600 ------- 2 3.0 1.0 36 86
+ 0.495 2 1 cbr 600 ------- 1 2.0 0.0 39 91
- 0.495 2 1 cbr 600 ------- 1 2.0 0.0 39 91
+ 0.495 3 1 cbr 600 ------- 2 3.0 1.0 39 92
- 0.495 3 1 cbr 600 ------- 2 3.0 1.0 39 92
r 0.4996 1 0 cbr 600 ------- 1 2.0 0.0 34 81
r 0.4998 2 1 cbr 600 ------- 1 2.0 0.0 37 87
+ 0.4998 1 0 cbr 600 ------- 1 2.0 0.0 37 87
- 0.4998 1 0 cbr 600 ------- 1 2.0 0.0 37 87
r 0.4998 3 1 cbr 600 ------- 2 3.0 1.0 37 88
+ 0.5 2 1 cbr 600 ------- 1 2.0 0.0 40 93
- 0.5 2 1 cbr 600 ------- 1 2.0 0.0 40 93
+ 0.5 3 1 cbr 600 ------- 2 3.0 1.0 40 94
- 0.5 3 1 cbr 600 ------- 2 3.0 1.0 40 94
r 0.5046 1 0 cbr 600 ------- 1 2.0 0.0 35 83
r 0.5048 2 1 cbr 600 ------- 1 2.0 0.0 38 89
+ 0.5048 1 0 cbr 600 ------- 1 2.0 0.0 38 89
- 0.5048 1 0 cbr 600 ------- 1 2.0 0.0 38 89
r 0.5048 3 1 cbr 600 ------- 2 3.0 1.0 38 90
+ 0.505 2 1 cbr 600 ------- 1 2.0 0.0 41 95
- 0.505 2 1 cbr 600 ------- 1 2.0 0.0 41 95
+ 0.505 3 1 cbr 600 ------- 2 3.0 1.0 41 96
- 0.505 3 1 cbr 600 ------- 2 3.0 1.0 41 96
r 0.5096 1 0 cbr 600 ------- 1 2.0 0.0 36 85
r 0.5098 2 1 cbr 600 ------- 1 2.0 0.0 39 91
+ 0.5098 1 0 cbr 600 ------- 1 2.0 0.0 39 91
- 0.5098 1 0 cbr 600 ------- 1 2.0 0.0 39 91
r 0.5098 3 1 cbr 600 ------- 2 3.0 1.0 39 92
+ 0.51 2 1 cbr 600 ------- 1 2.0 0.0 42 97
- 0.51 2 1 cbr 600 ------- 1 2.0 0.0 42 97
+ 0.51 3 1 cbr 600 ------- 2 3.0 1.0 42 98
- 0.51 3 1 cbr 600 ------- 2 3.0 1.0 42 98
r 0.5146 1 0 cbr 600 ------- 1 2.0 0.0 37 87
r 0.5148 2 1 cbr 600 ------- 1 2.0 0.0 40 93
+ 0.5148 1 0 cbr 600 ------- 1 2.0 0.0 40 93
- 0.5148 1 0 cbr 600 ------- 1 2.0 0.0 40 93
r 0.5148 3 1 cbr 600 ------- 2 3.0 1.0 40 94
+ 0.515 2 1 cbr 600 ------- 1 2.0 0.0 43 99
- 0.515 2 1 cbr 600 ------- 1 2.0 0.0 43 99
+ 0.515 3 1 cbr 600 ------- 2 3.0 1.0 43 100
- 0.515 3 1 cbr 600 ------- 2 3.0 1.0 43 100
r 0.5196 1 0 cbr 600 ------- 1 2.0 0.0 38 89
r 0.5198 2 1 cbr 600 ------- 1 2.0 0.0 41 95
+ 0.5198 1 0 cbr 600 ------- 1 2.0 0.0 41 95
- 0.5198 1 0 cbr 600 ------- 1 2.0 0.0 41 95
r 0.5198 3 1 cbr 600 ------- 2 3.0 1.0 41 96
+ 0.52 2 1 cbr 600 ------- 1 2.0 0.0 44 101
- 0.52 2 1 cbr 600 ------- 1 2.0 0.0 44 101
+ 0.52 3 1 cbr 600 ------- 2 3.0 1.0 44 102
- 0.52 3 1 cbr 600 ------- 2 3.0 1.0 44 102
r 0.5246 1 0 cbr 600 ------- 1 2.0 0.0 39 91
r 0.5248 2 1 cbr 600 ------- 1 2.0 0.0 42 97
+ 0.5248 1 0 cbr 600 ------- 1 2.0 0.0 42 97
- 0.5248 1 0 cbr 600 ------- 1 2.0 0.0 42 97
r 0.5248 3 1 cbr 600 ------- 2 3.0 1.0 42 98
+ 0.525 2 1 cbr 600 ------- 1 2.0 0.0 45 103
- 0.525 2 1 cbr 600 ------- 1 2.0 0.0 45 103
+ 0.525 3 1 cbr 600 ------- 2 3.0 1.0 45 104
- 0.525 3 1 cbr 600 ------- 2 3.0 1.0 45 104
r 0.5296 1 0 cbr 600 ------- 1 2.0 0.0 40 93
r 0.5298 2 1 cbr 600 ------- 1 2.0 0.0 43 99
+ 0.5298 1 0 cbr 600 ------- 1 2.0 0.0 43 99
- 0.5298 1 0 cbr 600 ------- 1 2.0 0.0 43 99
r 0.5298 3 1 cbr 600 ------- 2 3.0 1.0 43 100
+ 0.53 2 1 cbr 600 ------- 1 2.0 0.0 46 105
- 0.53 2 1 cbr 600 ------- 1 2.0 0.0 46 105
+ 0.53 3 1 cbr 600 ------- 2 3.0 1.0 46 106
- 0.53 3 1 cbr 600 ------- 2 3.0 1.0 46 106
r 0.5346 1 0 cbr 600 ------- 1 2.0 0.0 41 95
r 0.5348 2 1 cbr 600 ------- 1 2.0 0.0 44 101
+ 0.5348 1 0 cbr 600 ------- 1 2.0 0.0 44 101
- 0.5348 1 0 cbr 600 ------- 1 2.0 0.0 44 101
r 0.5348 3 1 cbr 600 ------- 2 3.0 1.0 44 102
+ 0.535 2 1 cbr 600 ------- 1 2.0 0.0 47 107
- 0.535 2 1 cbr 600 ------- 1 2.0 0.0 47 107
+ 0.535 3 1 cbr 600 ------- 2 3.0 1.0 47 108
- 0.535 3 1 cbr 600 ------- 2 3.0 1.0 47 108
r 0.5396 1 0 cbr 600 ------- 1 2.0 0.0 42 97
r 0.5398 2 1 cbr 600 ------- 1 2.0 0.0 45 103
+ 0.5398 1 0 cbr 600 ------- 1 2.0 0.0 45 103
- 0.5398 1 0 cbr 600 ------- 1 2.0 0.0 45 103
r 0.5398 3 1 cbr 600 ------- 2 3.0 1.0 45 104
+ 0.54 2 1 cbr 600 ------- 1 2.0 0.0 48 109
- 0.54 2 1 cbr 600 ------- 1 2.0 0.0 48 109
+ 0.54 3 1 cbr 600 ------- 2 3.0 1.0 48 110
- 0.54 3 1 cbr 600 ------- 2 3.0 1.0 48 110
r 0.5446 1 0 cbr 600 ------- 1 2.0 0.0 43 99
r 0.5448 2 1 cbr 600 ------- 1 2.0 0.0 46 105
+ 0.5448 1 0 cbr 600 ------- 1 2.0 0.0 46 105
- 0.5448 1 0 cbr 600 ------- 1 2.0 0.0 46 105
r 0.5448 3 1 cbr 600 ------- 2 3.0 1.0 46 106
+ 0.545 2 1 cbr 600 ------- 1 2.0 0.0 49 111
- 0.545 2 1 cbr 600 ------- 1 2.0 0.0 49 111
+ 0.545 3 1 cbr 600 ------- 2 3.0 1.0 49 112
- 0.545 3 1 cbr 600 ------- 2 3.0 1.0 49 112
r 0.5496 1 0 cbr 600 ------- 1 2.0 0.0 44 101
r 0.5498 2 1 cbr 600 ------- 1 2.0 0.0 47 107
+ 0.5498 1 0 cbr 600 ------- 1 2.0 0.0 47 107
- 0.5498 1 0 cbr 600 ------- 1 2.0 0.0 47 107
r 0.5498 3 1 cbr 600 ------- 2 3.0 1.0 47 108
+ 0.55 2 1 cbr 600 ------- 1 2.0 0.0 50 113
- 0.55 2 1 cbr 600 ------- 1 2.0 0.0 50 113
+ 0.55 3 1 cbr 600 ------- 2 3.0 1.0 50 114
- 0.55 3 1 cbr 600 ------- 2 3.0 1.0 50 114
r 0.5546 1 0 cbr 600 ------- 1 2.0 0.0 45 103
r 0.5548 2 1 cbr 600 ------- 1 2.0 0.0 48 109
+ 0.5548 1 0 cbr 600 ------- 1 2.0 0.0 48 109
- 0.5548 1 0 cbr 600 ------- 1 2.0 0.0 48 109
r 0.5548 3 1 cbr 600 ------- 2 3.0 1.0 48 110
+ 0.555 2 1 cbr 600 ------- 1 2.0 0.0 51 115
- 0.555 2 1 cbr 600 ------- 1 2.0 0.0 51 115
+ 0.555 3 1 cbr 600 ------- 2 3.0 1.0 51 116
- 0.555 3 1 cbr 600 ------- 2 3.0 1.0 51 116
r 0.5596 1 0 cbr 600 ------- 1 2.0 0.0 46 105
r 0.5598 2 1 cbr 600 ------- 1 2.0 0.0 49 111
+ 0.5598 1 0 cbr 600 ------- 1 2.0 0.0 49 111
- 0.5598 1 0 cbr 600 ------- 1 2.0 0.0 49 111
r 0.5598 3 1 cbr 600 ------- 2 3.0 1.0 49 112
+ 0.56 2 1 cbr 600 ------- 1 2.0 0.0 52 117
- 0.56 2 1 cbr 600 ------- 1 2.0 0.0 52 117
+ 0.56 3 1 cbr 600 ------- 2 3.0 1.0 52 118
- 0.56 3 1 cbr 600 ------- 2 3.0 1.0 52 118
r 0.5646 1 0 cbr 600 ------- 1 2.0 0.0 47 107
r 0.5648 2 1 cbr 600 ------- 1 2.0 0.0 50 113
+ 0.5648 1 0 cbr 600 ------- 1 2.0 0.0 50 113
- 0.5648 1 0 cbr 600 ------- 1 2.0 0.0 50 113
r 0.5648 3 1 cbr 600 ------- 2 3.0 1.0 50 114
+ 0.565 2 1 cbr 600 ------- 1 2.0 0.0 53 119
- 0.565 2 1 cbr 600 ------- 1 2.0 0.0 53 119
+ 0.565 3 1 cbr 600 ------- 2 3.0 1.0 53 120
- 0.565 3 1 cbr 600 ------- 2 3.0 1.0 53 120
r 0.5696 1 0 cbr 600 ------- 1 2.0 0.0 48 109
r 0.5698 2 1 cbr 600 ------- 1 2.0 0.0 51 115
+ 0.5698 1 0 cbr 600 ------- 1 2.0 0.0 51 115
- 0.5698 1 0 cbr 600 ------- 1 2.0 0.0 51 115
r 0.5698 3 1 cbr 600 ------- 2 3.0 1.0 51 116
+ 0.57 2 1 cbr 600 ------- 1 2.0 0.0 54 121
- 0.57 2 1 cbr 600 ------- 1 2.0 0.0 54 121
+ 0.57 3 1 cbr 600 ------- 2 3.0 1.0 54 122
- 0.57 3 1 cbr 600 ------- 2 3.0 1.0 54 122
r 0.5746 1 0 cbr 600 ------- 1 2.0 0.0 49 111
r 0.5748 2 1 cbr 600 ------- 1 2.0 0.0 52 117
+ 0.5748 1 0 cbr 600 ------- 1 2.0 0.0 52 117
- 0.5748 1 0 cbr 600 ------- 1 2.0 0.0 52 117
r 0.5748 3 1 cbr 600 ------- 2 3.0 1.0 52 118
+ 0.575 2 1 cbr 600 ------- 1 2.0 0.0 55 123
- 0.575 2 1 cbr 600 ------- 1 2.0 0.0 55 123
+ 0.575 3 1 cbr 600 ------- 2 3.0 1.0 55 124
- 0.575 3 1 cbr 600 ------- 2 3.0 1.0 55 124
r 0.5796 1 0 cbr 600 ------- 1 2.0 0.0 50 113
r 0.5798 2 1 cbr 600 ------- 1 2.0 0.0 53 119
+ 0.5798 1 0 cbr 600 ------- 1 2.0 0.0 53 119
- 0.5798 1 0 cbr 600 ------- 1 2.0 0.0 53 119
r 0.5798 3 1 cbr 600 ------- 2 3.0 1.0 53 120
+ 0.58 2 1 cbr 600 ------- 1 2.0 0.0 56 125
- 0.58 2 1 cbr 600 ------- 1 2.0 0.0 56 125
+ 0.58 3 1 cbr 600 ------- 2 3.0 1.0 56 126
- 0.58 3 1 cbr 600 ------- 2 3.0 1.0 56 126
r 0.5846 1 0 cbr 600 ------- 1 2.0 0.0 51 115
r 0.5848 2 1 cbr 600 ------- 1 2.0 0.0 54 121
+ 0.5848 1 0 cbr 600 ------- 1 2.0 0.0 54 121
- 0.5848 1 0 cbr 600 ------- 1 2.0 0.0 54 121
r 0.5848 3 1 cbr 600 ------- 2 3.0 1.0 54 122
+ 0.585 2 1 cbr 600 ------- 1 2.0 0.0 57 127
- 0.585 2 1 cbr 600 ------- 1 2.0 0.0 57 127
+ 0.585 3 1 cbr 600 ------- 2 3.0 1.0 57 128
- 0.585 3 1 cbr 600 ------- 2 3.0 1.0 57 128
r 0.5896 1 0 cbr 600 ------- 1 2.0 0.0 52 117
r 0.5898 2 1 cbr 600 ------- 1 2.0 0.0 55 123
+ 0.5898 1 0 cbr 600 ------- 1 2.0 0.0 55 123
- 0.5898 1 0 cbr 600 ------- 1 2.0 0.0 55 123
r 0.5898 3 1 cbr 600 ------- 2 3.0 1.0 55 124
+ 0.59 2 1 cbr 600 ------- 1 2.0 0.0 58 129
- 0.59 2 1 cbr 600 ------- 1 2.0 0.0 58 129
+ 0.59 3 1 cbr 600 ------- 2 3.0 1.0 58 130
- 0.59 3 1 cbr 600 ------- 2 3.0 1.0 58 130
r 0.5946 1 0 cbr 600 ------- 1 2.0 0.0 53 119
r 0.5948 2 1 cbr 600 ------- 1 2.0 0.0 56 125
+ 0.5948 1 0 cbr 600 ------- 1 2.0 0.0 56 125
- 0.5948 1 0 cbr 600 ------- 1 2.0 0.0 56 125
r 0.5948 3 1 cbr 600 ------- 2 3.0 1.0 56 126
+ 0.595 2 1 cbr 600 ------- 1 2.0 0.0 59 131
- 0.595 2 1 cbr 600 ------- 1 2.0 0.0 59 131
+ 0.595 3 1 cbr 600 ------- 2 3.0 1.0 59 132
- 0.595 3 1 cbr 600 ------- 2 3.0 1.0 59 132
r 0.5996 1 0 cbr 600 ------- 1 2.0 0.0 54 121
r 0.5998 2 1 cbr 600 ------- 1 2.0 0.0 57 127
+ 0.5998 1 0 cbr 600 ------- 1 2.0 0.0 57 127
- 0.5998 1 0 cbr 600 ------- 1 2.0 0.0 57 127
r 0.5998 3 1 cbr 600 ------- 2 3.0 1.0 57 128
+ 0.6 2 1 cbr 600 ------- 1 2.0 0.0 60 133
- 0.6 2 1 cbr 600 ------- 1 2.0 0.0 60 133
+ 0.6 3 1 cbr 600 ------- 2 3.0 1.0 60 134
- 0.6 3 1 cbr 600 ------- 2 3.0 1.0 60 134
r 0.6046 1 0 cbr 600 ------- 1 2.0 0.0 55 123
r 0.6048 2 1 cbr 600 ------- 1 2.0 0.0 58 129
+ 0.6048 1 0 cbr 600 ------- 1 2.0 0.0 58 129
- 0.6048 1 0 cbr 600 ------- 1 2.0 0.0 58 129
r 0.6048 3 1 cbr 600 ------- 2 3.0 1.0 58 130
+ 0.605 2 1 cbr 600 ------- 1 2.0 0.0 61 135
- 0.605 2 1 cbr 600 ------- 1 2.0 0.0 61 135
+ 0.605 3 1 cbr 600 ------- 2 3.0 1.0 61 136
- 0.605 3 1 cbr 600 ------- 2 3.0 1.0 61 136
r 0.6096 1 0 cbr 600 ------- 1 2.0 0.0 56 125
r 0.6098 2 1 cbr 600 ------- 1 2.0 0.0 59 131
+ 0.6098 1 0 cbr 600 ------- 1 2.0 0.0 59 131
- 0.6098 1 0 cbr 600 ------- 1 2.0 0.0 59 131
r 0.6098 3 1 cbr 600 ------- 2 3.0 1.0 59 132
+ 0.61 2 1 cbr 600 ------- 1 2.0 0.0 62 137
- 0.61 2 1 cbr 600 ------- 1 2.0 0.0 62 137
+ 0.61 3 1 cbr 600 ------- 2 3.0 1.0 62 138
- 0.61 3 1 cbr 600 ------- 2 3.0 1.0 62 138
r 0.6146 1 0 cbr 600 ------- 1 2.0 0.0 57 127
r 0.6148 2 1 cbr 600 ------- 1 2.0 0.0 60 133
+ 0.6148 1 0 cbr 600 ------- 1 2.0 0.0 60 133
- 0.6148 1 0 cbr 600 ------- 1 2.0 0.0 60 133
r 0.6148 3 1 cbr 600 ------- 2 3.0 1.0 60 134
+ 0.615 2 1 cbr 600 ------- 1 2.0 0.0 63 139
- 0.615 2 1 cbr 600 ------- 1 2.0 0.0 63 139
+ 0.615 3 1 cbr 600 ------- 2 3.0 1.0 63 140
- 0.615 3 1 cbr 600 ------- 2 3.0 1.0 63 140
r 0.6196 1 0 cbr 600 ------- 1 2.0 0.0 58 129
r 0.6198 2 1 cbr 600 ------- 1 2.0 0.0 61 135
+ 0.6198 1 0 cbr 600 ------- 1 2.0 0.0 61 135
- 0.6198 1 0 cbr 600 ------- 1 2.0 0.0 61 135
r 0.6198 3 1 cbr 600 ------- 2 3.0 1.0 61 136
+ 0.62 2 1 cbr 600 ------- 1 2.0 0.0 64 141
- 0.62 2 1 cbr 600 ------- 1 2.0 0.0 64 141
+ 0.62 3 1 cbr 600 ------- 2 3.0 1.0 64 142
- 0.62 3 1 cbr 600 ------- 2 3.0 1.0 64 142
r 0.6246 1 0 cbr 600 ------- 1 2.0 0.0 59 131
r 0.6248 2 1 cbr 600 ------- 1 2.0 0.0 62 137
+ 0.6248 1 0 cbr 600 ------- 1 2.0 0.0 62 137
- 0.6248 1 0 cbr 600 ------- 1 2.0 0.0 62 137
r 0.6248 3 1 cbr 600 ------- 2 3.0 1.0 62 138
+ 0.625 2 1 cbr 600 ------- 1 2.0 0.0 65 143
- 0.625 2 1 cbr 600 ------- 1 2.0 0.0 65 143
+ 0.625 3 1 cbr 600 ------- 2 3.0 1.0 65 144
- 0.625 3 1 cbr 600 ------- 2 3.0 1.0 65 144
r 0.6296 1 0 cbr 600 ------- 1 2.0 0.0 60 133
r 0.6298 2 1 cbr 600 ------- 1 2.0 0.0 63 139
+ 0.6298 1 0 cbr 600 ------- 1 2.0 0.0 63 139
- 0.6298 1 0 cbr 600 ------- 1 2.0 0.0 63 139
r 0.6298 3 1 cbr 600 ------- 2 3.0 1.0 63 140
+ 0.63 2 1 cbr 600 ------- 1 2.0 0.0 66 145
- 0.63 2 1 cbr 600 ------- 1 2.0 0.0 66 145
+ 0.63 3 1 cbr 600 ------- 2 3.0 1.0 66 146
- 0.63 3 1 cbr 600 ------- 2 3.0 1.0 66 146
r 0.6346 1 0 cbr 600 ------- 1 2.0 0.0 61 135
r 0.6348 2 1 cbr 600 ------- 1 2.0 0.0 64 141
+ 0.6348 1 0 cbr 600 ------- 1 2.0 0.0 64 141
- 0.6348 1 0 cbr 600 ------- 1 2.0 0.0 64 141
r 0.6348 3 1 cbr 600 ------- 2 3.0 1.0 64 142
+ 0.635 2 1 cbr 600 ------- 1 2.0 0.0 67 147
- 0.635 2 1 cbr 600 ------- 1 2.0 0.0 67 147
+ 0.635 3 1 cbr 600 ------- 2 3.0 1.0 67 148
- 0.635 3 1 cbr 600 ------- 2 3.0 1.0 67 148
r 0.6396 1 0 cbr 600 ------- 1 2.0 0.0 62 137
r 0.6398 2 1 cbr 600 ------- 1 2.0 0.0 65 143
+ 0.6398 1 0 cbr 600 ------- 1 2.0 0.0 65 143
- 0.6398 1 0 cbr 600 ------- 1 2.0 0.0 65 143
r 0.6398 3 1 cbr 600 ------- 2 3.0 1.0 65 144
+ 0.64 2 1 cbr 600 ------- 1 2.0 0.0 68 149
- 0.64 2 1 cbr 600 ------- 1 2.0 0.0 68 149
+ 0.64 3 1 cbr 600 ------- 2 3.0 1.0 68 150
- 0.64 3 1 cbr 600 ------- 2 3.0 1.0 68 150
r 0.6446 1 0 cbr 600 ------- 1 2.0 0.0 63 139
r 0.6448 2 1 cbr 600 ------- 1 2.0 0.0 66 145
+ 0.6448 1 0 cbr 600 ------- 1 2.0 0.0 66 145
- 0.6448 1 0 cbr 600 ------- 1 2.0 0.0 66 145
r 0.6448 3 1 cbr 600 ------- 2 3.0 1.0 66 146
+ 0.645 2 1 cbr 600 ------- 1 2.0 0.0 69 151
- 0.645 2 1 cbr 600 ------- 1 2.0 0.0 69 151
+ 0.645 3 1 cbr 600 ------- 2 3.0 1.0 69 152
- 0.645 3 1 cbr 600 ------- 2 3.0 1.0 69 152
r 0.6496 1 0 cbr 600 ------- 1 2.0 0.0 64 141
r 0.6498 2 1 cbr 600 ------- 1 2.0 0.0 67 147
+ 0.6498 1 0 cbr 600 ------- 1 2.0 0.0 67 147
- 0.6498 1 0 cbr 600 ------- 1 2.0 0.0 67 147
r 0.6498 3 1 cbr 600 ------- 2 3.0 1.0 67 148
+ 0.65 2 1 cbr 600 ------- 1 2.0 0.0 70 153
- 0.65 2 1 cbr 600 ------- 1 2.0 0.0 70 153
+ 0.65 3 1 cbr 600 ------- 2 3.0 1.0 70 154
- 0.65 3 1 cbr 600 ------- 2 3.0 1.0 70 154
r 0.6546 1 0 cbr 600 ------- 1 2.0 0.0 65 143
r 0.6548 2 1 cbr 600 ------- 1 2.0 0.0 68 149
+ 0.6548 1 0 cbr 600 ------- 1 2.0 0.0 68 149
- 0.6548 1 0 cbr 600 ------- 1 2.0 0.0 68 149
r 0.6548 3 1 cbr 600 ------- 2 3.0 1.0 68 150
+ 0.655 2 1 cbr 600 ------- 1 2.0 0.0 71 155
- 0.655 2 1 cbr 600 ------- 1 2.0 0.0 71 155
+ 0.655 3 1 cbr 600 ------- 2 3.0 1.0 71 156
- 0.655 3 1 cbr 600 ------- 2 3.0 1.0 71 156