+ 0 0 1 tcp 40 ------- 0 0.0 1.0 0 0
- 0 0 1 tcp 40 ------- 0 0.0 1.0 0 0
r 0.100003 0 1 tcp 40 ------- 0 0.0 1.0 0 0
+ 0.100003 1 0 ack 40 ------- 0 1.0 0.0 0 1
- 0.100003 1 0 ack 40 ------- 0 1.0 0.0 0 1
r 0.200006 1 0 ack 40 ------- 0 1.0 0.0 0 1
+ 0.200006 0 1 tcp 1040 ------- 0 0.0 1.0 1 2
- 0.200006 0 1 tcp 1040 ------- 0 0.0 1.0 1 2
+ 0.200006 0 1 tcp 1040 ------- 0 0.0 1.0 2 3
- 0.20009 0 1 tcp 1040 ------- 0 0.0 1.0 2 3
r 0.30009 0 1 tcp 1040 ------- 0 0.0 1.0 1 2
+ 0.30009 1 0 ack 40 ------- 0 1.0 0.0 1 4
- 0.30009 1 0 ack 40 ------- 0 1.0 0.0 1 4
r 0.300173 0 1 tcp 1040 ------- 0 0.0 1.0 2 3
+ 0.300173 1 0 ack 40 ------- 0 1.0 0.0 2 5
- 0.300173 1 0 ack 40 ------- 0 1.0 0.0 2 5
r 0.400093 1 0 ack 40 ------- 0 1.0 0.0 1 4
+ 0.400093 0 1 tcp 1040 ------- 0 0.0 1.0 3 6
- 0.400093 0 1 tcp 1040 ------- 0 0.0 1.0 3 6
+ 0.400093 0 1 tcp 1040 ------- 0 0.0 1.0 4 7
r 0.400176 1 0 ack 40 ------- 0 1.0 0.0 2 5
+ 0.400176 0 1 tcp 1040 ------- 0 0.0 1.0 5 8
+ 0.400176 0 1 tcp 1040 ------- 0 0.0 1.0 6 9
- 0.400176 0 1 tcp 1040 ------- 0 0.0 1.0 4 7
- 0.400259 0 1 tcp 1040 ------- 0 0.0 1.0 5 8
- 0.400342 0 1 tcp 1040 ------- 0 0.0 1.0 6 9
r 0.500176 0 1 tcp 1040 ------- 0 0.0 1.0 3 6
+ 0.500176 1 0 ack 40 ------- 0 1.0 0.0 3 10
- 0.500176 1 0 ack 40 ------- 0 1.0 0.0 3 10
r 0.500259 0 1 tcp 1040 ------- 0 0.0 1.0 4 7
+ 0.500259 1 0 ack 40 ------- 0 1.0 0.0 4 11
- 0.500259 1 0 ack 40 ------- 0 1.0 0.0 4 11
r 0.500342 0 1 tcp 1040 ------- 0 0.0 1.0 5 8
+ 0.500342 1 0 ack 40 ------- 0 1.0 0.0 5 12
- 0.500342 1 0 ack 40 ------- 0 1.0 0.0 5 12
r 0.500426 0 1 tcp 1040 ------- 0 0.0 1.0 6 9
+ 0.500426 1 0 ack 40 ------- 0 1.0 0.0 6 13
- 0.500426 1 0 ack 40 ------- 0 1.0 0.0 6 13
r 0.600179 1 0 ack 40 ------- 0 1.0 0.0 3 10
+ 0.600179 0 1 tcp 1040 ------- 0 0.0 1.0 7 14
- 0.600179 0 1 tcp 1040 ------- 0 0.0 1.0 7 14
+ 0.600179 0 1 tcp 1040 ------- 0 0.0 1.0 8 15
r 0.600262 1 0 ack 40 ------- 0 1.0 0.0 4 11
+ 0.600262 0 1 tcp 1040 ------- 0 0.0 1.0 9 16
+ 0.600262 0 1 tcp 1040 ------- 0 0.0 1.0 10 17
- 0.600262 0 1 tcp 1040 ------- 0 0.0 1.0 8 15
- 0.600346 0 1 tcp 1040 ------- 0 0.0 1.0 9 16
r 0.600346 1 0 ack 40 ------- 0 1.0 0.0 5 12
+ 0.600346 0 1 tcp 1040 ------- 0 0.0 1.0 11 18
+ 0.600346 0 1 tcp 1040 ------- 0 0.0 1.0 12 19
- 0.600429 0 1 tcp 1040 ------- 0 0.0 1.0 10 17
r 0.600429 1 0 ack 40 ------- 0 1.0 0.0 6 13
+ 0.600429 0 1 tcp 1040 ------- 0 0.0 1.0 13 20
+ 0.600429 0 1 tcp 1040 ------- 0 0.0 1.0 14 21
- 0.600512 0 1 tcp 1040 ------- 0 0.0 1.0 11 18
- 0.600595 0 1 tcp 1040 ------- 0 0.0 1.0 12 19
- 0.600678 0 1 tcp 1040 ------- 0 0.0 1.0 13 20
- 0.600762 0 1 tcp 1040 ------- 0 0.0 1.0 14 21
r 0.700262 0 1 tcp 1040 ------- 0 0.0 1.0 7 14
+ 0.700262 1 0 ack 40 ------- 0 1.0 0.0 7 22
- 0.700262 1 0 ack 40 ------- 0 1.0 0.0 7 22
r 0.700346 0 1 tcp 1040 ------- 0 0.0 1.0 8 15
+ 0.700346 1 0 ack 40 ------- 0 1.0 0.0 8 23
- 0.700346 1 0 ack 40 ------- 0 1.0 0.0 8 23
r 0.700429 0 1 tcp 1040 ------- 0 0.0 1.0 9 16
+ 0.700429 1 0 ack 40 ------- 0 1.0 0.0 9 24
- 0.700429 1 0 ack 40 ------- 0 1.0 0.0 9 24
r 0.700512 0 1 tcp 1040 ------- 0 0.0 1.0 10 17
+ 0.700512 1 0 ack 40 ------- 0 1.0 0.0 10 25
- 0.700512 1 0 ack 40 ------- 0 1.0 0.0 10 25
r 0.700595 0 1 tcp 1040 ------- 0 0.0 1.0 11 18
+ 0.700595 1 0 ack 40 ------- 0 1.0 0.0 11 26
- 0.700595 1 0 ack 40 ------- 0 1.0 0.0 11 26
r 0.700678 0 1 tcp 1040 ------- 0 0.0 1.0 12 19
+ 0.700678 1 0 ack 40 ------- 0 1.0 0.0 12 27
- 0.700678 1 0 ack 40 ------- 0 1.0 0.0 12 27
r 0.700762 0 1 tcp 1040 ------- 0 0.0 1.0 13 20
+ 0.700762 1 0 ack 40 ------- 0 1.0 0.0 13 28
- 0.700762 1 0 ack 40 ------- 0 1.0 0.0 13 28
r 0.700845 0 1 tcp 1040 ------- 0 0.0 1.0 14 21
+ 0.700845 1 0 ack 40 ------- 0 1.0 0.0 14 29
- 0.700845 1 0 ack 40 ------- 0 1.0 0.0 14 29
r 0.800266 1 0 ack 40 ------- 0 1.0 0.0 7 22
+ 0.800266 0 1 tcp 1040 ------- 0 0.0 1.0 15 30
- 0.800266 0 1 tcp 1040 ------- 0 0.0 1.0 15 30
+ 0.800266 0 1 tcp 1040 ------- 0 0.0 1.0 16 31
r 0.800349 1 0 ack 40 ------- 0 1.0 0.0 8 23
+ 0.800349 0 1 tcp 1040 ------- 0 0.0 1.0 17 32
+ 0.800349 0 1 tcp 1040 ------- 0 0.0 1.0 18 33
- 0.800349 0 1 tcp 1040 ------- 0 0.0 1.0 16 31
r 0.800432 1 0 ack 40 ------- 0 1.0 0.0 9 24
+ 0.800432 0 1 tcp 1040 ------- 0 0.0 1.0 19 34
+ 0.800432 0 1 tcp 1040 ------- 0 0.0 1.0 20 35
- 0.800432 0 1 tcp 1040 ------- 0 0.0 1.0 17 32
r 0.800515 1 0 ack 40 ------- 0 1.0 0.0 10 25
+ 0.800515 0 1 tcp 1040 ------- 0 0.0 1.0 21 36
+ 0.800515 0 1 tcp 1040 ------- 0 0.0 1.0 22 37
- 0.800515 0 1 tcp 1040 ------- 0 0.0 1.0 18 33
r 0.800598 1 0 ack 40 ------- 0 1.0 0.0 11 26
+ 0.800598 0 1 tcp 1040 ------- 0 0.0 1.0 23 38
+ 0.800598 0 1 tcp 1040 ------- 0 0.0 1.0 24 39
- 0.800598 0 1 tcp 1040 ------- 0 0.0 1.0 19 34
r 0.800682 1 0 ack 40 ------- 0 1.0 0.0 12 27
+ 0.800682 0 1 tcp 1040 ------- 0 0.0 1.0 25 40
+ 0.800682 0 1 tcp 1040 ------- 0 0.0 1.0 26 41
- 0.800682 0 1 tcp 1040 ------- 0 0.0 1.0 20 35
r 0.800765 1 0 ack 40 ------- 0 1.0 0.0 13 28
+ 0.800765 0 1 tcp 1040 ------- 0 0.0 1.0 27 42
+ 0.800765 0 1 tcp 1040 ------- 0 0.0 1.0 28 43
- 0.800765 0 1 tcp 1040 ------- 0 0.0 1.0 21 36
r 0.800848 1 0 ack 40 ------- 0 1.0 0.0 14 29
+ 0.800848 0 1 tcp 1040 ------- 0 0.0 1.0 29 44
+ 0.800848 0 1 tcp 1040 ------- 0 0.0 1.0 30 45
- 0.800848 0 1 tcp 1040 ------- 0 0.0 1.0 22 37
- 0.800931 0 1 tcp 1040 ------- 0 0.0 1.0 23 38
- 0.801014 0 1 tcp 1040 ------- 0 0.0 1.0 24 39
- 0.801098 0 1 tcp 1040 ------- 0 0.0 1.0 25 40
- 0.801181 0 1 tcp 1040 ------- 0 0.0 1.0 26 41
- 0.801264 0 1 tcp 1040 ------- 0 0.0 1.0 27 42
- 0.801347 0 1 tcp 1040 ------- 0 0.0 1.0 28 43
- 0.80143 0 1 tcp 1040 ------- 0 0.0 1.0 29 44
- 0.801514 0 1 tcp 1040 ------- 0 0.0 1.0 30 45
r 0.900349 0 1 tcp 1040 ------- 0 0.0 1.0 15 30
+ 0.900349 1 0 ack 40 ------- 0 1.0 0.0 15 46
- 0.900349 1 0 ack 40 ------- 0 1.0 0.0 15 46
r 0.900432 0 1 tcp 1040 ------- 0 0.0 1.0 16 31
+ 0.900432 1 0 ack 40 ------- 0 1.0 0.0 16 47
- 0.900432 1 0 ack 40 ------- 0 1.0 0.0 16 47
r 0.900515 0 1 tcp 1040 ------- 0 0.0 1.0 17 32
+ 0.900515 1 0 ack 40 ------- 0 1.0 0.0 17 48
- 0.900515 1 0 ack 40 ------- 0 1.0 0.0 17 48
r 0.900598 0 1 tcp 1040 ------- 0 0.0 1.0 18 33
+ 0.900598 1 0 ack 40 ------- 0 1.0 0.0 18 49
- 0.900598 1 0 ack 40 ------- 0 1.0 0.0 18 49
r 0.900682 0 1 tcp 1040 ------- 0 0.0 1.0 19 34
+ 0.900682 1 0 ack 40 ------- 0 1.0 0.0 19 50
- 0.900682 1 0 ack 40 ------- 0 1.0 0.0 19 50
r 0.900765 0 1 tcp 1040 ------- 0 0.0 1.0 20 35
+ 0.900765 1 0 ack 40 ------- 0 1.0 0.0 20 51
- 0.900765 1 0 ack 40 ------- 0 1.0 0.0 20 51
r 0.900848 0 1 tcp 1040 ------- 0 0.0 1.0 21 36
+ 0.900848 1 0 ack 40 ------- 0 1.0 0.0 21 52
- 0.900848 1 0 ack 40 ------- 0 1.0 0.0 21 52
r 0.900931 0 1 tcp 1040 ------- 0 0.0 1.0 22 37
+ 0.900931 1 0 ack 40 ------- 0 1.0 0.0 22 53
- 0.900931 1 0 ack 40 ------- 0 1.0 0.0 22 53
r 0.901014 0 1 tcp 1040 ------- 0 0.0 1.0 23 38
+ 0.901014 1 0 ack 40 ------- 0 1.0 0.0 23 54
- 0.901014 1 0 ack 40 ------- 0 1.0 0.0 23 54
r 0.901098 0 1 tcp 1040 ------- 0 0.0 1.0 24 39
+ 0.901098 1 0 ack 40 ------- 0 1.0 0.0 24 55
- 0.901098 1 0 ack 40 ------- 0 1.0 0.0 24 55
r 0.901181 0 1 tcp 1040 ------- 0 0.0 1.0 25 40
+ 0.901181 1 0 ack 40 ------- 0 1.0 0.0 25 56
- 0.901181 1 0 ack 40 ------- 0 1.0 0.0 25 56
r 0.901264 0 1 tcp 1040 ------- 0 0.0 1.0 26 41
+ 0.901264 1 0 ack 40 ------- 0 1.0 0.0 26 57
- 0.901264 1 0 ack 40 ------- 0 1.0 0.0 26 57
r 0.901347 0 1 tcp 1040 ------- 0 0.0 1.0 27 42
+ 0.901347 1 0 ack 40 ------- 0 1.0 0.0 27 58
- 0.901347 1 0 ack 40 ------- 0 1.0 0.0 27 58
r 0.90143 0 1 tcp 1040 ------- 0 0.0 1.0 28 43
+ 0.90143 1 0 ack 40 ------- 0 1.0 0.0 28 59
- 0.90143 1 0 ack 40 ------- 0 1.0 0.0 28 59
r 0.901514 0 1 tcp 1040 ------- 0 0.0 1.0 29 44
+ 0.901514 1 0 ack 40 ------- 0 1.0 0.0 29 60
- 0.901514 1 0 ack 40 ------- 0 1.0 0.0 29 60
r 0.901597 0 1 tcp 1040 ------- 0 0.0 1.0 30 45
+ 0.901597 1 0 ack 40 ------- 0 1.0 0.0 30 61
- 0.901597 1 0 ack 40 ------- 0 1.0 0.0 30 61
r 1.000352 1 0 ack 40 ------- 0 1.0 0.0 15 46
+ 1.000352 0 1 tcp 1040 ------- 0 0.0 1.0 31 62
- 1.000352 0 1 tcp 1040 ------- 0 0.0 1.0 31 62
+ 1.000352 0 1 tcp 1040 ------- 0 0.0 1.0 32 63
r 1.000435 1 0 ack 40 ------- 0 1.0 0.0 16 47
+ 1.000435 0 1 tcp 1040 ------- 0 0.0 1.0 33 64
+ 1.000435 0 1 tcp 1040 ------- 0 0.0 1.0 34 65
- 1.000435 0 1 tcp 1040 ------- 0 0.0 1.0 32 63
r 1.000518 1 0 ack 40 ------- 0 1.0 0.0 17 48
+ 1.000518 0 1 tcp 1040 ------- 0 0.0 1.0 35 66
+ 1.000518 0 1 tcp 1040 ------- 0 0.0 1.0 36 67
- 1.000518 0 1 tcp 1040 ------- 0 0.0 1.0 33 64
r 1.000602 1 0 ack 40 ------- 0 1.0 0.0 18 49
+ 1.000602 0 1 tcp 1040 ------- 0 0.0 1.0 37 68
+ 1.000602 0 1 tcp 1040 ------- 0 0.0 1.0 38 69
- 1.000602 0 1 tcp 1040 ------- 0 0.0 1.0 34 65
r 1.000685 1 0 ack 40 ------- 0 1.0 0.0 19 50
+ 1.000685 0 1 tcp 1040 ------- 0 0.0 1.0 39 70
+ 1.000685 0 1 tcp 1040 ------- 0 0.0 1.0 40 71
- 1.000685 0 1 tcp 1040 ------- 0 0.0 1.0 35 66
r 1.000768 1 0 ack 40 ------- 0 1.0 0.0 20 51
+ 1.000768 0 1 tcp 1040 ------- 0 0.0 1.0 41 72
+ 1.000768 0 1 tcp 1040 ------- 0 0.0 1.0 42 73
- 1.000768 0 1 tcp 1040 ------- 0 0.0 1.0 36 67
r 1.000851 1 0 ack 40 ------- 0 1.0 0.0 21 52
+ 1.000851 0 1 tcp 1040 ------- 0 0.0 1.0 43 74
+ 1.000851 0 1 tcp 1040 ------- 0 0.0 1.0 44 75
- 1.000851 0 1 tcp 1040 ------- 0 0.0 1.0 37 68
r 1.000934 1 0 ack 40 ------- 0 1.0 0.0 22 53
+ 1.000934 0 1 tcp 1040 ------- 0 0.0 1.0 45 76
+ 1.000934 0 1 tcp 1040 ------- 0 0.0 1.0 46 77
- 1.000934 0 1 tcp 1040 ------- 0 0.0 1.0 38 69
r 1.001018 1 0 ack 40 ------- 0 1.0 0.0 23 54
+ 1.001018 0 1 tcp 1040 ------- 0 0.0 1.0 47 78
+ 1.001018 0 1 tcp 1040 ------- 0 0.0 1.0 48 79
- 1.001018 0 1 tcp 1040 ------- 0 0.0 1.0 39 70
r 1.001101 1 0 ack 40 ------- 0 1.0 0.0 24 55
+ 1.001101 0 1 tcp 1040 ------- 0 0.0 1.0 49 80
+ 1.001101 0 1 tcp 1040 ------- 0 0.0 1.0 50 81
- 1.001101 0 1 tcp 1040 ------- 0 0.0 1.0 40 71
r 1.001184 1 0 ack 40 ------- 0 1.0 0.0 25 56
+ 1.001184 0 1 tcp 1040 ------- 0 0.0 1.0 51 82
+ 1.001184 0 1 tcp 1040 ------- 0 0.0 1.0 52 83
- 1.001184 0 1 tcp 1040 ------- 0 0.0 1.0 41 72
r 1.001267 1 0 ack 40 ------- 0 1.0 0.0 26 57
+ 1.001267 0 1 tcp 1040 ------- 0 0.0 1.0 53 84
+ 1.001267 0 1 tcp 1040 ------- 0 0.0 1.0 54 85
- 1.001267 0 1 tcp 1040 ------- 0 0.0 1.0 42 73
r 1.00135 1 0 ack 40 ------- 0 1.0 0.0 27 58
+ 1.00135 0 1 tcp 1040 ------- 0 0.0 1.0 55 86
+ 1.00135 0 1 tcp 1040 ------- 0 0.0 1.0 56 87
- 1.00135 0 1 tcp 1040 ------- 0 0.0 1.0 43 74
r 1.001434 1 0 ack 40 ------- 0 1.0 0.0 28 59
+ 1.001434 0 1 tcp 1040 ------- 0 0.0 1.0 57 88
+ 1.001434 0 1 tcp 1040 ------- 0 0.0 1.0 58 89
- 1.001434 0 1 tcp 1040 ------- 0 0.0 1.0 44 75
r 1.001517 1 0 ack 40 ------- 0 1.0 0.0 29 60
+ 1.001517 0 1 tcp 1040 ------- 0 0.0 1.0 59 90
+ 1.001517 0 1 tcp 1040 ------- 0 0.0 1.0 60 91
- 1.001517 0 1 tcp 1040 ------- 0 0.0 1.0 45 76
r 1.0016 1 0 ack 40 ------- 0 1.0 0.0 30 61
+ 1.0016 0 1 tcp 1040 ------- 0 0.0 1.0 61 92
+ 1.0016 0 1 tcp 1040 ------- 0 0.0 1.0 62 93
- 1.0016 0 1 tcp 1040 ------- 0 0.0 1.0 46 77
- 1.001683 0 1 tcp 1040 ------- 0 0.0 1.0 47 78
- 1.001766 0 1 tcp 1040 ------- 0 0.0 1.0 48 79
- 1.00185 0 1 tcp 1040 ------- 0 0.0 1.0 49 80
- 1.001933 0 1 tcp 1040 ------- 0 0.0 1.0 50 81
- 1.002016 0 1 tcp 1040 ------- 0 0.0 1.0 51 82
- 1.002099 0 1 tcp 1040 ------- 0 0.0 1.0 52 83
- 1.002182 0 1 tcp 1040 ------- 0 0.0 1.0 53 84
- 1.002266 0 1 tcp 1040 ------- 0 0.0 1.0 54 85
- 1.002349 0 1 tcp 1040 ------- 0 0.0 1.0 55 86
- 1.002432 0 1 tcp 1040 ------- 0 0.0 1.0 56 87
- 1.002515 0 1 tcp 1040 ------- 0 0.0 1.0 57 88
- 1.002598 0 1 tcp 1040 ------- 0 0.0 1.0 58 89
- 1.002682 0 1 tcp 1040 ------- 0 0.0 1.0 59 90
- 1.002765 0 1 tcp 1040 ------- 0 0.0 1.0 60 91
- 1.002848 0 1 tcp 1040 ------- 0 0.0 1.0 61 92
- 1.002931 0 1 tcp 1040 ------- 0 0.0 1.0 62 93
r 1.100435 0 1 tcp 1040 ------- 0 0.0 1.0 31 62
+ 1.100435 1 0 ack 40 ------- 0 1.0 0.0 31 94
- 1.100435 1 0 ack 40 ------- 0 1.0 0.0 31 94
r 1.100518 0 1 tcp 1040 ------- 0 0.0 1.0 32 63
+ 1.100518 1 0 ack 40 ------- 0 1.0 0.0 32 95
- 1.100518 1 0 ack 40 ------- 0 1.0 0.0 32 95
r 1.100602 0 1 tcp 1040 ------- 0 0.0 1.0 33 64
+ 1.100602 1 0 ack 40 ------- 0 1.0 0.0 33 96
- 1.100602 1 0 ack 40 ------- 0 1.0 0.0 33 96
r 1.100685 0 1 tcp 1040 ------- 0 0.0 1.0 34 65
+ 1.100685 1 0 ack 40 ------- 0 1.0 0.0 34 97
- 1.100685 1 0 ack 40 ------- 0 1.0 0.0 34 97
r 1.100768 0 1 tcp 1040 ------- 0 0.0 1.0 35 66
+ 1.100768 1 0 ack 40 ------- 0 1.0 0.0 35 98
- 1.100768 1 0 ack 40 ------- 0 1.0 0.0 35 98
r 1.100851 0 1 tcp 1040 ------- 0 0.0 1.0 36 67
+ 1.100851 1 0 ack 40 ------- 0 1.0 0.0 36 99
- 1.100851 1 0 ack 40 ------- 0 1.0 0.0 36 99
r 1.100934 0 1 tcp 1040 ------- 0 0.0 1.0 37 68
+ 1.100934 1 0 ack 40 ------- 0 1.0 0.0 37 100
- 1.100934 1 0 ack 40 ------- 0 1.0 0.0 37 100
r 1.101018 0 1 tcp 1040 ------- 0 0.0 1.0 38 69
+ 1.101018 1 0 ack 40 ------- 0 1.0 0.0 38 101
- 1.101018 1 0 ack 40 ------- 0 1.0 0.0 38 101
r 1.101101 0 1 tcp 1040 ------- 0 0.0 1.0 39 70
+ 1.101101 1 0 ack 40 ------- 0 1.0 0.0 39 102
- 1.101101 1 0 ack 40 ------- 0 1.0 0.0 39 102
r 1.101184 0 1 tcp 1040 ------- 0 0.0 1.0 40 71
+ 1.101184 1 0 ack 40 ------- 0 1.0 0.0 40 103
- 1.101184 1 0 ack 40 ------- 0 1.0 0.0 40 103
r 1.101267 0 1 tcp 1040 ------- 0 0.0 1.0 41 72
+ 1.101267 1 0 ack 40 ------- 0 1.0 0.0 41 104
- 1.101267 1 0 ack 40 ------- 0 1.0 0.0 41 104
r 1.10135 0 1 tcp 1040 ------- 0 0.0 1.0 42 73
+ 1.10135 1 0 ack 40 ------- 0 1.0 0.0 42 105
- 1.10135 1 0 ack 40 ------- 0 1.0 0.0 42 105
r 1.101434 0 1 tcp 1040 ------- 0 0.0 1.0 43 74
+ 1.101434 1 0 ack 40 ------- 0 1.0 0.0 43 106
- 1.101434 1 0 ack 40 ------- 0 1.0 0.0 43 106
r 1.101517 0 1 tcp 1040 ------- 0 0.0 1.0 44 75
+ 1.101517 1 0 ack 40 ------- 0 1.0 0.0 44 107
- 1.101517 1 0 ack 40 ------- 0 1.0 0.0 44 107
r 1.1016 0 1 tcp 1040 ------- 0 0.0 1.0 45 76
+ 1.1016 1 0 ack 40 ------- 0 1.0 0.0 45 108
- 1.1016 1 0 ack 40 ------- 0 1.0 0.0 45 108
r 1.101683 0 1 tcp 1040 ------- 0 0.0 1.0 46 77
+ 1.101683 1 0 ack 40 ------- 0 1.0 0.0 46 109
- 1.101683 1 0 ack 40 ------- 0 1.0 0.0 46 109
r 1.101766 0 1 tcp 1040 ------- 0 0.0 1.0 47 78
+ 1.101766 1 0 ack 40 ------- 0 1.0 0.0 47 110
- 1.101766 1 0 ack 40 ------- 0 1.0 0.0 47 110
r 1.10185 0 1 tcp 1040 ------- 0 0.0 1.0 48 79
+ 1.10185 1 0 ack 40 ------- 0 1.0 0.0 48 111
- 1.10185 1 0 ack 40 ------- 0 1.0 0.0 48 111
r 1.101933 0 1 tcp 1040 ------- 0 0.0 1.0 49 80
+ 1.101933 1 0 ack 40 ------- 0 1.0 0.0 49 112
- 1.101933 1 0 ack 40 ------- 0 1.0 0.0 49 112
r 1.102016 0 1 tcp 1040 ------- 0 0.0 1.0 50 81
+ 1.102016 1 0 ack 40 ------- 0 1.0 0.0 50 113
- 1.102016 1 0 ack 40 ------- 0 1.0 0.0 50 113
r 1.102099 0 1 tcp 1040 ------- 0 0.0 1.0 51 82
+ 1.102099 1 0 ack 40 ------- 0 1.0 0.0 51 114
- 1.102099 1 0 ack 40 ------- 0 1.0 0.0 51 114
r 1.102182 0 1 tcp 1040 ------- 0 0.0 1.0 52 83
+ 1.102182 1 0 ack 40 ------- 0 1.0 0.0 52 115
- 1.102182 1 0 ack 40 ------- 0 1.0 0.0 52 115
r 1.102266 0 1 tcp 1040 ------- 0 0.0 1.0 53 84
+ 1.102266 1 0 ack 40 ------- 0 1.0 0.0 53 116
- 1.102266 1 0 ack 40 ------- 0 1.0 0.0 53 116
r 1.102349 0 1 tcp 1040 ------- 0 0.0 1.0 54 85
+ 1.102349 1 0 ack 40 ------- 0 1.0 0.0 54 117
- 1.102349 1 0 ack 40 ------- 0 1.0 0.0 54 117
r 1.102432 0 1 tcp 1040 ------- 0 0.0 1.0 55 86
+ 1.102432 1 0 ack 40 ------- 0 1.0 0.0 55 118
- 1.102432 1 0 ack 40 ------- 0 1.0 0.0 55 118
r 1.102515 0 1 tcp 1040 ------- 0 0.0 1.0 56 87
+ 1.102515 1 0 ack 40 ------- 0 1.0 0.0 56 119
- 1.102515 1 0 ack 40 ------- 0 1.0 0.0 56 119
r 1.102598 0 1 tcp 1040 ------- 0 0.0 1.0 57 88
+ 1.102598 1 0 ack 40 ------- 0 1.0 0.0 57 120
- 1.102598 1 0 ack 40 ------- 0 1.0 0.0 57 120
r 1.102682 0 1 tcp 1040 ------- 0 0.0 1.0 58 89
+ 1.102682 1 0 ack 40 ------- 0 1.0 0.0 58 121
- 1.102682 1 0 ack 40 ------- 0 1.0 0.0 58 121
r 1.102765 0 1 tcp 1040 ------- 0 0.0 1.0 59 90
+ 1.102765 1 0 ack 40 ------- 0 1.0 0.0 59 122
- 1.102765 1 0 ack 40 ------- 0 1.0 0.0 59 122
r 1.102848 0 1 tcp 1040 ------- 0 0.0 1.0 60 91
+ 1.102848 1 0 ack 40 ------- 0 1.0 0.0 60 123
- 1.102848 1 0 ack 40 ------- 0 1.0 0.0 60 123
r 1.102931 0 1 tcp 1040 ------- 0 0.0 1.0 61 92
+ 1.102931 1 0 ack 40 ------- 0 1.0 0.0 61 124
- 1.102931 1 0 ack 40 ------- 0 1.0 0.0 61 124
r 1.103014 0 1 tcp 1040 ------- 0 0.0 1.0 62 93
+ 1.103014 1 0 ack 40 ------- 0 1.0 0.0 62 125
- 1.103014 1 0 ack 40 ------- 0 1.0 0.0 62 125
r 1.200438 1 0 ack 40 ------- 0 1.0 0.0 31 94
+ 1.200438 0 1 tcp 1040 ------- 0 0.0 1.0 63 126
- 1.200438 0 1 tcp 1040 ------- 0 0.0 1.0 63 126
+ 1.200438 0 1 tcp 1040 ------- 0 0.0 1.0 64 127
r 1.200522 1 0 ack 40 ------- 0 1.0 0.0 32 95
+ 1.200522 0 1 tcp 1040 ------- 0 0.0 1.0 65 128
+ 1.200522 0 1 tcp 1040 ------- 0 0.0 1.0 66 129
- 1.200522 0 1 tcp 1040 ------- 0 0.0 1.0 64 127
r 1.200605 1 0 ack 40 ------- 0 1.0 0.0 33 96
+ 1.200605 0 1 tcp 1040 ------- 0 0.0 1.0 67 130
+ 1.200605 0 1 tcp 1040 ------- 0 0.0 1.0 68 131
- 1.200605 0 1 tcp 1040 ------- 0 0.0 1.0 65 128
r 1.200688 1 0 ack 40 ------- 0 1.0 0.0 34 97
+ 1.200688 0 1 tcp 1040 ------- 0 0.0 1.0 69 132
+ 1.200688 0 1 tcp 1040 ------- 0 0.0 1.0 70 133
- 1.200688 0 1 tcp 1040 ------- 0 0.0 1.0 66 129
r 1.200771 1 0 ack 40 ------- 0 1.0 0.0 35 98
+ 1.200771 0 1 tcp 1040 ------- 0 0.0 1.0 71 134
+ 1.200771 0 1 tcp 1040 ------- 0 0.0 1.0 72 135
- 1.200771 0 1 tcp 1040 ------- 0 0.0 1.0 67 130
r 1.200854 1 0 ack 40 ------- 0 1.0 0.0 36 99
+ 1.200854 0 1 tcp 1040 ------- 0 0.0 1.0 73 136
+ 1.200854 0 1 tcp 1040 ------- 0 0.0 1.0 74 137
- 1.200854 0 1 tcp 1040 ------- 0 0.0 1.0 68 131
r 1.200938 1 0 ack 40 ------- 0 1.0 0.0 37 100
+ 1.200938 0 1 tcp 1040 ------- 0 0.0 1.0 75 138
+ 1.200938 0 1 tcp 1040 ------- 0 0.0 1.0 76 139
- 1.200938 0 1 tcp 1040 ------- 0 0.0 1.0 69 132
r 1.201021 1 0 ack 40 ------- 0 1.0 0.0 38 101
+ 1.201021 0 1 tcp 1040 ------- 0 0.0 1.0 77 140
- 1.201021 0 1 tcp 1040 ------- 0 0.0 1.0 70 133
r 1.201104 1 0 ack 40 ------- 0 1.0 0.0 39 102
+ 1.201104 0 1 tcp 1040 ------- 0 0.0 1.0 78 141
- 1.201104 0 1 tcp 1040 ------- 0 0.0 1.0 71 134
r 1.201187 1 0 ack 40 ------- 0 1.0 0.0 40 103
+ 1.201187 0 1 tcp 1040 ------- 0 0.0 1.0 79 142
- 1.201187 0 1 tcp 1040 ------- 0 0.0 1.0 72 135
r 1.20127 1 0 ack 40 ------- 0 1.0 0.0 41 104
+ 1.20127 0 1 tcp 1040 ------- 0 0.0 1.0 80 143
- 1.20127 0 1 tcp 1040 ------- 0 0.0 1.0 73 136
r 1.201354 1 0 ack 40 ------- 0 1.0 0.0 42 105
+ 1.201354 0 1 tcp 1040 ------- 0 0.0 1.0 81 144
- 1.201354 0 1 tcp 1040 ------- 0 0.0 1.0 74 137
r 1.201437 1 0 ack 40 ------- 0 1.0 0.0 43 106
+ 1.201437 0 1 tcp 1040 ------- 0 0.0 1.0 82 145
- 1.201437 0 1 tcp 1040 ------- 0 0.0 1.0 75 138
r 1.20152 1 0 ack 40 ------- 0 1.0 0.0 44 107
+ 1.20152 0 1 tcp 1040 ------- 0 0.0 1.0 83 146
- 1.20152 0 1 tcp 1040 ------- 0 0.0 1.0 76 139
r 1.201603 1 0 ack 40 ------- 0 1.0 0.0 45 108
+ 1.201603 0 1 tcp 1040 ------- 0 0.0 1.0 84 147
- 1.201603 0 1 tcp 1040 ------- 0 0.0 1.0 77 140
r 1.201686 1 0 ack 40 ------- 0 1.0 0.0 46 109
+ 1.201686 0 1 tcp 1040 ------- 0 0.0 1.0 85 148
- 1.201686 0 1 tcp 1040 ------- 0 0.0 1.0 78 141
r 1.20177 1 0 ack 40 ------- 0 1.0 0.0 47 110
+ 1.20177 0 1 tcp 1040 ------- 0 0.0 1.0 86 149
- 1.20177 0 1 tcp 1040 ------- 0 0.0 1.0 79 142
r 1.201853 1 0 ack 40 ------- 0 1.0 0.0 48 111
+ 1.201853 0 1 tcp 1040 ------- 0 0.0 1.0 87 150
- 1.201853 0 1 tcp 1040 ------- 0 0.0 1.0 80 143
r 1.201936 1 0 ack 40 ------- 0 1.0 0.0 49 112
+ 1.201936 0 1 tcp 1040 ------- 0 0.0 1.0 88 151
- 1.201936 0 1 tcp 1040 ------- 0 0.0 1.0 81 144
r 1.202019 1 0 ack 40 ------- 0 1.0 0.0 50 113
+ 1.202019 0 1 tcp 1040 ------- 0 0.0 1.0 89 152
- 1.202019 0 1 tcp 1040 ------- 0 0.0 1.0 82 145
r 1.202102 1 0 ack 40 ------- 0 1.0 0.0 51 114
+ 1.202102 0 1 tcp 1040 ------- 0 0.0 1.0 90 153
- 1.202102 0 1 tcp 1040 ------- 0 0.0 1.0 83 146
r 1.202186 1 0 ack 40 ------- 0 1.0 0.0 52 115
+ 1.202186 0 1 tcp 1040 ------- 0 0.0 1.0 91 154
- 1.202186 0 1 tcp 1040 ------- 0 0.0 1.0 84 147
r 1.202269 1 0 ack 40 ------- 0 1.0 0.0 53 116
+ 1.202269 0 1 tcp 1040 ------- 0 0.0 1.0 92 155
- 1.202269 0 1 tcp 1040 ------- 0 0.0 1.0 85 148
r 1.202352 1 0 ack 40 ------- 0 1.0 0.0 54 117
+ 1.202352 0 1 tcp 1040 ------- 0 0.0 1.0 93 156
- 1.202352 0 1 tcp 1040 ------- 0 0.0 1.0 86 149
r 1.202435 1 0 ack 40 ------- 0 1.0 0.0 55 118
+ 1.202435 0 1 tcp 1040 ------- 0 0.0 1.0 94 157
- 1.202435 0 1 tcp 1040 ------- 0 0.0 1.0 87 150
r 1.202518 1 0 ack 40 ------- 0 1.0 0.0 56 119
+ 1.202518 0 1 tcp 1040 ------- 0 0.0 1.0 95 158
- 1.202518 0 1 tcp 1040 ------- 0 0.0 1.0 88 151
r 1.202602 1 0 ack 40 ------- 0 1.0 0.0 57 120
+ 1.202602 0 1 tcp 1040 ------- 0 0.0 1.0 96 159
- 1.202602 0 1 tcp 1040 ------- 0 0.0 1.0 89 152
r 1.202685 1 0 ack 40 ------- 0 1.0 0.0 58 121
+ 1.202685 0 1 tcp 1040 ------- 0 0.0 1.0 97 160
- 1.202685 0 1 tcp 1040 ------- 0 0.0 1.0 90 153
r 1.202768 1 0 ack 40 ------- 0 1.0 0.0 59 122
+ 1.202768 0 1 tcp 1040 ------- 0 0.0 1.0 98 161
- 1.202768 0 1 tcp 1040 ------- 0 0.0 1.0 91 154
r 1.202851 1 0 ack 40 ------- 0 1.0 0.0 60 123
+ 1.202851 0 1 tcp 1040 ------- 0 0.0 1.0 99 162
- 1.202851 0 1 tcp 1040 ------- 0 0.0 1.0 92 155
r 1.202934 1 0 ack 40 ------- 0 1.0 0.0 61 124
+ 1.202934 0 1 tcp 1040 ------- 0 0.0 1.0 100 163
- 1.202934 0 1 tcp 1040 ------- 0 0.0 1.0 93 156
r 1.203018 1 0 ack 40 ------- 0 1.0 0.0 62 125
+ 1.203018 0 1 tcp 1040 ------- 0 0.0 1.0 101 164
- 1.203018 0 1 tcp 1040 ------- 0 0.0 1.0 94 157
- 1.203101 0 1 tcp 1040 ------- 0 0.0 1.0 95 158
- 1.203184 0 1 tcp 1040 ------- 0 0.0 1.0 96 159
- 1.203267 0 1 tcp 1040 ------- 0 0.0 1.0 97 160
- 1.20335 0 1 tcp 1040 ------- 0 0.0 1.0 98 161
- 1.203434 0 1 tcp 1040 ------- 0 0.0 1.0 99 162
- 1.203517 0 1 tcp 1040 ------- 0 0.0 1.0 100 163
- 1.2036 0 1 tcp 1040 ------- 0 0.0 1.0 101 164
r 1.300522 0 1 tcp 1040 ------- 0 0.0 1.0 63 126
+ 1.300522 1 0 ack 40 ------- 0 1.0 0.0 63 165
- 1.300522 1 0 ack 40 ------- 0 1.0 0.0 63 165
r 1.300605 0 1 tcp 1040 ------- 0 0.0 1.0 64 127
+ 1.300605 1 0 ack 40 ------- 0 1.0 0.0 64 166
- 1.300605 1 0 ack 40 ------- 0 1.0 0.0 64 166
r 1.300688 0 1 tcp 1040 ------- 0 0.0 1.0 65 128
+ 1.300688 1 0 ack 40 ------- 0 1.0 0.0 65 167
- 1.300688 1 0 ack 40 ------- 0 1.0 0.0 65 167
r 1.300771 0 1 tcp 1040 ------- 0 0.0 1.0 66 129
+ 1.300771 1 0 ack 40 ------- 0 1.0 0.0 66 168
- 1.300771 1 0 ack 40 ------- 0 1.0 0.0 66 168
r 1.300854 0 1 tcp 1040 ------- 0 0.0 1.0 67 130
+ 1.300854 1 0 ack 40 ------- 0 1.0 0.0 67 169
- 1.300854 1 0 ack 40 ------- 0 1.0 0.0 67 169
r 1.300938 0 1 tcp 1040 ------- 0 0.0 1.0 68 131
+ 1.300938 1 0 ack 40 ------- 0 1.0 0.0 68 170
- 1.300938 1 0 ack 40 ------- 0 1.0 0.0 68 170
r 1.301021 0 1 tcp 1040 ------- 0 0.0 1.0 69 132
+ 1.301021 1 0 ack 40 ------- 0 1.0 0.0 69 171
- 1.301021 1 0 ack 40 ------- 0 1.0 0.0 69 171
r 1.301104 0 1 tcp 1040 ------- 0 0.0 1.0 70 133
+ 1.301104 1 0 ack 40 ------- 0 1.0 0.0 70 172
- 1.301104 1 0 ack 40 ------- 0 1.0 0.0 70 172
r 1.301187 0 1 tcp 1040 ------- 0 0.0 1.0 71 134
+ 1.301187 1 0 ack 40 ------- 0 1.0 0.0 71 173
- 1.301187 1 0 ack 40 ------- 0 1.0 0.0 71 173
r 1.30127 0 1 tcp 1040 ------- 0 0.0 1.0 72 135
+ 1.30127 1 0 ack 40 ------- 0 1.0 0.0 72 174
- 1.30127 1 0 ack 40 ------- 0 1.0 0.0 72 174
r 1.301354 0 1 tcp 1040 ------- 0 0.0 1.0 73 136
+ 1.301354 1 0 ack 40 ------- 0 1.0 0.0 73 175
- 1.301354 1 0 ack 40 ------- 0 1.0 0.0 73 175
r 1.301437 0 1 tcp 1040 ------- 0 0.0 1.0 74 137
+ 1.301437 1 0 ack 40 ------- 0 1.0 0.0 74 176
- 1.301437 1 0 ack 40 ------- 0 1.0 0.0 74 176
r 1.30152 0 1 tcp 1040 ------- 0 0.0 1.0 75 138
+ 1.30152 1 0 ack 40 ------- 0 1.0 0.0 75 177
- 1.30152 1 0 ack 40 ------- 0 1.0 0.0 75 177
r 1.301603 0 1 tcp 1040 ------- 0 0.0 1.0 76 139
+ 1.301603 1 0 ack 40 ------- 0 1.0 0.0 76 178
- 1.301603 1 0 ack 40 ------- 0 1.0 0.0 76 178
r 1.301686 0 1 tcp 1040 ------- 0 0.0 1.0 77 140
+ 1.301686 1 0 ack 40 ------- 0 1.0 0.0 77 179
- 1.301686 1 0 ack 40 ------- 0 1.0 0.0 77 179
r 1.30177 0 1 tcp 1040 ------- 0 0.0 1.0 78 141
+ 1.30177 1 0 ack 40 ------- 0 1.0 0.0 78 180
- 1.30177 1 0 ack 40 ------- 0 1.0 0.0 78 180
r 1.301853 0 1 tcp 1040 ------- 0 0.0 1.0 79 142
+ 1.301853 1 0 ack 40 ------- 0 1.0 0.0 79 181
- 1.301853 1 0 ack 40 ------- 0 1.0 0.0 79 181
r 1.301936 0 1 tcp 1040 ------- 0 0.0 1.0 80 143
+ 1.301936 1 0 ack 40 ------- 0 1.0 0.0 80 182
- 1.301936 1 0 ack 40 ------- 0 1.0 0.0 80 182
r 1.302019 0 1 tcp 1040 ------- 0 0.0 1.0 81 144
+ 1.302019 1 0 ack 40 ------- 0 1.0 0.0 81 183
- 1.302019 1 0 ack 40 ------- 0 1.0 0.0 81 183
r 1.302102 0 1 tcp 1040 ------- 0 0.0 1.0 82 145
+ 1.302102 1 0 ack 40 ------- 0 1.0 0.0 82 184
- 1.302102 1 0 ack 40 ------- 0 1.0 0.0 82 184
r 1.302186 0 1 tcp 1040 ------- 0 0.0 1.0 83 146
+ 1.302186 1 0 ack 40 ------- 0 1.0 0.0 83 185
- 1.302186 1 0 ack 40 ------- 0 1.0 0.0 83 185
r 1.302269 0 1 tcp 1040 ------- 0 0.0 1.0 84 147
+ 1.302269 1 0 ack 40 ------- 0 1.0 0.0 84 186
- 1.302269 1 0 ack 40 ------- 0 1.0 0.0 84 186
r 1.302352 0 1 tcp 1040 ------- 0 0.0 1.0 85 148
+ 1.302352 1 0 ack 40 ------- 0 1.0 0.0 85 187
- 1.302352 1 0 ack 40 ------- 0 1.0 0.0 85 187
r 1.302435 0 1 tcp 1040 ------- 0 0.0 1.0 86 149
+ 1.302435 1 0 ack 40 ------- 0 1.0 0.0 86 188
- 1.302435 1 0 ack 40 ------- 0 1.0 0.0 86 188
r 1.302518 0 1 tcp 1040 ------- 0 0.0 1.0 87 150
+ 1.302518 1 0 ack 40 ------- 0 1.0 0.0 87 189
- 1.302518 1 0 ack 40 ------- 0 1.0 0.0 87 189
r 1.302602 0 1 tcp 1040 ------- 0 0.0 1.0 88 151
+ 1.302602 1 0 ack 40 ------- 0 1.0 0.0 88 190
- 1.302602 1 0 ack 40 ------- 0 1.0 0.0 88 190
r 1.302685 0 1 tcp 1040 ------- 0 0.0 1.0 89 152
+ 1.302685 1 0 ack 40 ------- 0 1.0 0.0 89 191
- 1.302685 1 0 ack 40 ------- 0 1.0 0.0 89 191
r 1.302768 0 1 tcp 1040 ------- 0 0.0 1.0 90 153
+ 1.302768 1 0 ack 40 ------- 0 1.0 0.0 90 192
- 1.302768 1 0 ack 40 ------- 0 1.0 0.0 90 192
r 1.302851 0 1 tcp 1040 ------- 0 0.0 1.0 91 154
+ 1.302851 1 0 ack 40 ------- 0 1.0 0.0 91 193
- 1.302851 1 0 ack 40 ------- 0 1.0 0.0 91 193
r 1.302934 0 1 tcp 1040 ------- 0 0.0 1.0 92 155
+ 1.302934 1 0 ack 40 ------- 0 1.0 0.0 92 194
- 1.302934 1 0 ack 40 ------- 0 1.0 0.0 92 194
r 1.303018 0 1 tcp 1040 ------- 0 0.0 1.0 93 156
+ 1.303018 1 0 ack 40 ------- 0 1.0 0.0 93 195
- 1.303018 1 0 ack 40 ------- 0 1.0 0.0 93 195
r 1.303101 0 1 tcp 1040 ------- 0 0.0 1.0 94 157
+ 1.303101 1 0 ack 40 ------- 0 1.0 0.0 94 196
- 1.303101 1 0 ack 40 ------- 0 1.0 0.0 94 196
r 1.303184 0 1 tcp 1040 ------- 0 0.0 1.0 95 158
+ 1.303184 1 0 ack 40 ------- 0 1.0 0.0 95 197
- 1.303184 1 0 ack 40 ------- 0 1.0 0.0 95 197
r 1.303267 0 1 tcp 1040 ------- 0 0.0 1.0 96 159
+ 1.303267 1 0 ack 40 ------- 0 1.0 0.0 96 198
- 1.303267 1 0 ack 40 ------- 0 1.0 0.0 96 198
r 1.30335 0 1 tcp 1040 ------- 0 0.0 1.0 97 160
+ 1.30335 1 0 ack 40 ------- 0 1.0 0.0 97 199
- 1.30335 1 0 ack 40 ------- 0 1.0 0.0 97 199
r 1.303434 0 1 tcp 1040 ------- 0 0.0 1.0 98 161
+ 1.303434 1 0 ack 40 ------- 0 1.0 0.0 98 200
- 1.303434 1 0 ack 40 ------- 0 1.0 0.0 98 200
r 1.303517 0 1 tcp 1040 ------- 0 0.0 1.0 99 162
+ 1.303517 1 0 ack 40 ------- 0 1.0 0.0 99 201
- 1.303517 1 0 ack 40 ------- 0 1.0 0.0 99 201
r 1.3036 0 1 tcp 1040 ------- 0 0.0 1.0 100 163
+ 1.3036 1 0 ack 40 ------- 0 1.0 0.0 100 202
- 1.3036 1 0 ack 40 ------- 0 1.0 0.0 100 202
r 1.303683 0 1 tcp 1040 ------- 0 0.0 1.0 101 164
+ 1.303683 1 0 ack 40 ------- 0 1.0 0.0 101 203
- 1.303683 1 0 ack 40 ------- 0 1.0 0.0 101 203
r 1.400525 1 0 ack 40 ------- 0 1.0 0.0 63 165
+ 1.400525 0 1 tcp 1040 ------- 0 0.0 1.0 102 204
- 1.400525 0 1 tcp 1040 ------- 0 0.0 1.0 102 204
r 1.400608 1 0 ack 40 ------- 0 1.0 0.0 64 166
+ 1.400608 0 1 tcp 1040 ------- 0 0.0 1.0 103 205
- 1.400608 0 1 tcp 1040 ------- 0 0.0 1.0 103 205
r 1.400691 1 0 ack 40 ------- 0 1.0 0.0 65 167
+ 1.400691 0 1 tcp 1040 ------- 0 0.0 1.0 104 206
- 1.400691 0 1 tcp 1040 ------- 0 0.0 1.0 104 206
r 1.400774 1 0 ack 40 ------- 0 1.0 0.0 66 168
+ 1.400774 0 1 tcp 1040 ------- 0 0.0 1.0 105 207
- 1.400774 0 1 tcp 1040 ------- 0 0.0 1.0 105 207
r 1.400858 1 0 ack 40 ------- 0 1.0 0.0 67 169
+ 1.400858 0 1 tcp 1040 ------- 0 0.0 1.0 106 208
- 1.400858 0 1 tcp 1040 ------- 0 0.0 1.0 106 208
r 1.400941 1 0 ack 40 ------- 0 1.0 0.0 68 170
+ 1.400941 0 1 tcp 1040 ------- 0 0.0 1.0 107 209
- 1.400941 0 1 tcp 1040 ------- 0 0.0 1.0 107 209
r 1.401024 1 0 ack 40 ------- 0 1.0 0.0 69 171
+ 1.401024 0 1 tcp 1040 ------- 0 0.0 1.0 108 210
- 1.401024 0 1 tcp 1040 ------- 0 0.0 1.0 108 210
r 1.401107 1 0 ack 40 ------- 0 1.0 0.0 70 172
+ 1.401107 0 1 tcp 1040 ------- 0 0.0 1.0 109 211
- 1.401107 0 1 tcp 1040 ------- 0 0.0 1.0 109 211
r 1.40119 1 0 ack 40 ------- 0 1.0 0.0 71 173
+ 1.40119 0 1 tcp 1040 ------- 0 0.0 1.0 110 212
- 1.40119 0 1 tcp 1040 ------- 0 0.0 1.0 110 212
r 1.401274 1 0 ack 40 ------- 0 1.0 0.0 72 174
+ 1.401274 0 1 tcp 1040 ------- 0 0.0 1.0 111 213
- 1.401274 0 1 tcp 1040 ------- 0 0.0 1.0 111 213
r 1.401357 1 0 ack 40 ------- 0 1.0 0.0 73 175
+ 1.401357 0 1 tcp 1040 ------- 0 0.0 1.0 112 214
- 1.401357 0 1 tcp 1040 ------- 0 0.0 1.0 112 214
r 1.40144 1 0 ack 40 ------- 0 1.0 0.0 74 176
+ 1.40144 0 1 tcp 1040 ------- 0 0.0 1.0 113 215
- 1.40144 0 1 tcp 1040 ------- 0 0.0 1.0 113 215
r 1.401523 1 0 ack 40 ------- 0 1.0 0.0 75 177
+ 1.401523 0 1 tcp 1040 ------- 0 0.0 1.0 114 216
- 1.401523 0 1 tcp 1040 ------- 0 0.0 1.0 114 216
r 1.401606 1 0 ack 40 ------- 0 1.0 0.0 76 178
+ 1.401606 0 1 tcp 1040 ------- 0 0.0 1.0 115 217
- 1.401606 0 1 tcp 1040 ------- 0 0.0 1.0 115 217
r 1.40169 1 0 ack 40 ------- 0 1.0 0.0 77 179
+ 1.40169 0 1 tcp 1040 ------- 0 0.0 1.0 116 218
- 1.40169 0 1 tcp 1040 ------- 0 0.0 1.0 116 218
r 1.401773 1 0 ack 40 ------- 0 1.0 0.0 78 180
+ 1.401773 0 1 tcp 1040 ------- 0 0.0 1.0 117 219
- 1.401773 0 1 tcp 1040 ------- 0 0.0 1.0 117 219
r 1.401856 1 0 ack 40 ------- 0 1.0 0.0 79 181
+ 1.401856 0 1 tcp 1040 ------- 0 0.0 1.0 118 220
- 1.401856 0 1 tcp 1040 ------- 0 0.0 1.0 118 220
r 1.401939 1 0 ack 40 ------- 0 1.0 0.0 80 182
+ 1.401939 0 1 tcp 1040 ------- 0 0.0 1.0 119 221
- 1.401939 0 1 tcp 1040 ------- 0 0.0 1.0 119 221
r 1.402022 1 0 ack 40 ------- 0 1.0 0.0 81 183
+ 1.402022 0 1 tcp 1040 ------- 0 0.0 1.0 120 222
- 1.402022 0 1 tcp 1040 ------- 0 0.0 1.0 120 222
r 1.402106 1 0 ack 40 ------- 0 1.0 0.0 82 184
+ 1.402106 0 1 tcp 1040 ------- 0 0.0 1.0 121 223