+ 0.5 0 1 tcp 4260 ------- 0 0.0 1.0 0 0
- 0.5 0 1 tcp 4260 ------- 0 0.0 1.0 0 0
+ 0.5 0 1 tcp 4300 ------- 0 0.0 1.0 1 1
+ 0.5 0 1 tcp 4300 ------- 0 0.0 1.0 2 2
+ 0.5 0 1 tcp 4300 ------- 0 0.0 1.0 3 3
- 0.503408 0 1 tcp 4300 ------- 0 0.0 1.0 1 1
- 0.506848 0 1 tcp 4300 ------- 0 0.0 1.0 2 2
r 0.508408 0 1 tcp 4260 ------- 0 0.0 1.0 0 0
+ 0.508408 1 0 ack 40 ------- 0 1.0 0.0 0 4
- 0.508408 1 0 ack 40 ------- 0 1.0 0.0 0 4
- 0.510288 0 1 tcp 4300 ------- 0 0.0 1.0 3 3
r 0.511848 0 1 tcp 4300 ------- 0 0.0 1.0 1 1
+ 0.511848 1 0 ack 40 ------- 0 1.0 0.0 1 5
- 0.511848 1 0 ack 40 ------- 0 1.0 0.0 1 5
r 0.51344 1 0 ack 40 ------- 0 1.0 0.0 0 4
+ 0.51344 0 1 tcp 4300 ------- 0 0.0 1.0 4 6
- 0.513728 0 1 tcp 4300 ------- 0 0.0 1.0 4 6
r 0.515288 0 1 tcp 4300 ------- 0 0.0 1.0 2 2
+ 0.515288 1 0 ack 40 ------- 0 1.0 0.0 2 7
- 0.515288 1 0 ack 40 ------- 0 1.0 0.0 2 7
r 0.51688 1 0 ack 40 ------- 0 1.0 0.0 1 5
+ 0.51688 0 1 tcp 4300 ------- 0 0.0 1.0 5 8
- 0.517168 0 1 tcp 4300 ------- 0 0.0 1.0 5 8
r 0.518728 0 1 tcp 4300 ------- 0 0.0 1.0 3 3
+ 0.518728 1 0 ack 40 ------- 0 1.0 0.0 3 9
- 0.518728 1 0 ack 40 ------- 0 1.0 0.0 3 9
r 0.52032 1 0 ack 40 ------- 0 1.0 0.0 2 7
+ 0.52032 0 1 tcp 4300 ------- 0 0.0 1.0 6 10
- 0.520608 0 1 tcp 4300 ------- 0 0.0 1.0 6 10
r 0.522168 0 1 tcp 4300 ------- 0 0.0 1.0 4 6
+ 0.522168 1 0 ack 40 ------- 0 1.0 0.0 4 11
- 0.522168 1 0 ack 40 ------- 0 1.0 0.0 4 11
r 0.52376 1 0 ack 40 ------- 0 1.0 0.0 3 9
+ 0.52376 0 1 tcp 4300 ------- 0 0.0 1.0 7 12
- 0.524048 0 1 tcp 4300 ------- 0 0.0 1.0 7 12
r 0.525608 0 1 tcp 4300 ------- 0 0.0 1.0 5 8
+ 0.525608 1 0 ack 40 ------- 0 1.0 0.0 5 13
- 0.525608 1 0 ack 40 ------- 0 1.0 0.0 5 13
r 0.5272 1 0 ack 40 ------- 0 1.0 0.0 4 11
+ 0.5272 0 1 tcp 4300 ------- 0 0.0 1.0 8 14
- 0.527488 0 1 tcp 4300 ------- 0 0.0 1.0 8 14
r 0.529048 0 1 tcp 4300 ------- 0 0.0 1.0 6 10
+ 0.529048 1 0 ack 40 ------- 0 1.0 0.0 6 15
- 0.529048 1 0 ack 40 ------- 0 1.0 0.0 6 15
r 0.53064 1 0 ack 40 ------- 0 1.0 0.0 5 13
+ 0.53064 0 1 tcp 4300 ------- 0 0.0 1.0 9 16
- 0.530928 0 1 tcp 4300 ------- 0 0.0 1.0 9 16
r 0.532488 0 1 tcp 4300 ------- 0 0.0 1.0 7 12
+ 0.532488 1 0 ack 40 ------- 0 1.0 0.0 7 17
- 0.532488 1 0 ack 40 ------- 0 1.0 0.0 7 17
r 0.53408 1 0 ack 40 ------- 0 1.0 0.0 6 15
+ 0.53408 0 1 tcp 4300 ------- 0 0.0 1.0 10 18
- 0.534368 0 1 tcp 4300 ------- 0 0.0 1.0 10 18
r 0.535928 0 1 tcp 4300 ------- 0 0.0 1.0 8 14
+ 0.535928 1 0 ack 40 ------- 0 1.0 0.0 8 19
- 0.535928 1 0 ack 40 ------- 0 1.0 0.0 8 19
r 0.53752 1 0 ack 40 ------- 0 1.0 0.0 7 17
+ 0.53752 0 1 tcp 4300 ------- 0 0.0 1.0 11 20
- 0.537808 0 1 tcp 4300 ------- 0 0.0 1.0 11 20
r 0.539368 0 1 tcp 4300 ------- 0 0.0 1.0 9 16
+ 0.539368 1 0 ack 40 ------- 0 1.0 0.0 9 21
- 0.539368 1 0 ack 40 ------- 0 1.0 0.0 9 21
r 0.54096 1 0 ack 40 ------- 0 1.0 0.0 8 19
+ 0.54096 0 1 tcp 4300 ------- 0 0.0 1.0 12 22
- 0.541248 0 1 tcp 4300 ------- 0 0.0 1.0 12 22
r 0.542808 0 1 tcp 4300 ------- 0 0.0 1.0 10 18
+ 0.542808 1 0 ack 40 ------- 0 1.0 0.0 10 23
- 0.542808 1 0 ack 40 ------- 0 1.0 0.0 10 23
r 0.5444 1 0 ack 40 ------- 0 1.0 0.0 9 21
+ 0.5444 0 1 tcp 4300 ------- 0 0.0 1.0 13 24
- 0.544688 0 1 tcp 4300 ------- 0 0.0 1.0 13 24
r 0.546248 0 1 tcp 4300 ------- 0 0.0 1.0 11 20
+ 0.546248 1 0 ack 40 ------- 0 1.0 0.0 11 25
- 0.546248 1 0 ack 40 ------- 0 1.0 0.0 11 25
r 0.54784 1 0 ack 40 ------- 0 1.0 0.0 10 23
+ 0.54784 0 1 tcp 4300 ------- 0 0.0 1.0 14 26
- 0.548128 0 1 tcp 4300 ------- 0 0.0 1.0 14 26
r 0.549688 0 1 tcp 4300 ------- 0 0.0 1.0 12 22
+ 0.549688 1 0 ack 40 ------- 0 1.0 0.0 12 27
- 0.549688 1 0 ack 40 ------- 0 1.0 0.0 12 27
r 0.55128 1 0 ack 40 ------- 0 1.0 0.0 11 25
+ 0.55128 0 1 tcp 4300 ------- 0 0.0 1.0 15 28
- 0.551568 0 1 tcp 4300 ------- 0 0.0 1.0 15 28
r 0.553128 0 1 tcp 4300 ------- 0 0.0 1.0 13 24
+ 0.553128 1 0 ack 40 ------- 0 1.0 0.0 13 29
- 0.553128 1 0 ack 40 ------- 0 1.0 0.0 13 29
r 0.55472 1 0 ack 40 ------- 0 1.0 0.0 12 27
+ 0.55472 0 1 tcp 4300 ------- 0 0.0 1.0 16 30
- 0.555008 0 1 tcp 4300 ------- 0 0.0 1.0 16 30
r 0.556568 0 1 tcp 4300 ------- 0 0.0 1.0 14 26
+ 0.556568 1 0 ack 40 ------- 0 1.0 0.0 14 31
- 0.556568 1 0 ack 40 ------- 0 1.0 0.0 14 31
r 0.55816 1 0 ack 40 ------- 0 1.0 0.0 13 29
+ 0.55816 0 1 tcp 4300 ------- 0 0.0 1.0 17 32
- 0.558448 0 1 tcp 4300 ------- 0 0.0 1.0 17 32
r 0.560008 0 1 tcp 4300 ------- 0 0.0 1.0 15 28
+ 0.560008 1 0 ack 40 ------- 0 1.0 0.0 15 33
- 0.560008 1 0 ack 40 ------- 0 1.0 0.0 15 33
r 0.5616 1 0 ack 40 ------- 0 1.0 0.0 14 31
+ 0.5616 0 1 tcp 4300 ------- 0 0.0 1.0 18 34
- 0.561888 0 1 tcp 4300 ------- 0 0.0 1.0 18 34
r 0.563448 0 1 tcp 4300 ------- 0 0.0 1.0 16 30
+ 0.563448 1 0 ack 40 ------- 0 1.0 0.0 16 35
- 0.563448 1 0 ack 40 ------- 0 1.0 0.0 16 35
r 0.56504 1 0 ack 40 ------- 0 1.0 0.0 15 33
+ 0.56504 0 1 tcp 4300 ------- 0 0.0 1.0 19 36
- 0.565328 0 1 tcp 4300 ------- 0 0.0 1.0 19 36
r 0.566888 0 1 tcp 4300 ------- 0 0.0 1.0 17 32
+ 0.566888 1 0 ack 40 ------- 0 1.0 0.0 17 37
- 0.566888 1 0 ack 40 ------- 0 1.0 0.0 17 37
r 0.56848 1 0 ack 40 ------- 0 1.0 0.0 16 35
+ 0.56848 0 1 tcp 4300 ------- 0 0.0 1.0 20 38
- 0.568768 0 1 tcp 4300 ------- 0 0.0 1.0 20 38
r 0.570328 0 1 tcp 4300 ------- 0 0.0 1.0 18 34
+ 0.570328 1 0 ack 40 ------- 0 1.0 0.0 18 39
- 0.570328 1 0 ack 40 ------- 0 1.0 0.0 18 39
r 0.57192 1 0 ack 40 ------- 0 1.0 0.0 17 37
+ 0.57192 0 1 tcp 4300 ------- 0 0.0 1.0 21 40
- 0.572208 0 1 tcp 4300 ------- 0 0.0 1.0 21 40
r 0.573768 0 1 tcp 4300 ------- 0 0.0 1.0 19 36
+ 0.573768 1 0 ack 40 ------- 0 1.0 0.0 19 41
- 0.573768 1 0 ack 40 ------- 0 1.0 0.0 19 41
r 0.57536 1 0 ack 40 ------- 0 1.0 0.0 18 39
+ 0.57536 0 1 tcp 4300 ------- 0 0.0 1.0 22 42
- 0.575648 0 1 tcp 4300 ------- 0 0.0 1.0 22 42
r 0.577208 0 1 tcp 4300 ------- 0 0.0 1.0 20 38
+ 0.577208 1 0 ack 40 ------- 0 1.0 0.0 20 43
- 0.577208 1 0 ack 40 ------- 0 1.0 0.0 20 43
r 0.5788 1 0 ack 40 ------- 0 1.0 0.0 19 41
+ 0.5788 0 1 tcp 4300 ------- 0 0.0 1.0 23 44
- 0.579088 0 1 tcp 4300 ------- 0 0.0 1.0 23 44
r 0.580648 0 1 tcp 4300 ------- 0 0.0 1.0 21 40
+ 0.580648 1 0 ack 40 ------- 0 1.0 0.0 21 45
- 0.580648 1 0 ack 40 ------- 0 1.0 0.0 21 45
r 0.58224 1 0 ack 40 ------- 0 1.0 0.0 20 43
+ 0.58224 0 1 tcp 4300 ------- 0 0.0 1.0 24 46
- 0.582528 0 1 tcp 4300 ------- 0 0.0 1.0 24 46
r 0.584088 0 1 tcp 4300 ------- 0 0.0 1.0 22 42
+ 0.584088 1 0 ack 40 ------- 0 1.0 0.0 22 47
- 0.584088 1 0 ack 40 ------- 0 1.0 0.0 22 47
r 0.58568 1 0 ack 40 ------- 0 1.0 0.0 21 45
+ 0.58568 0 1 tcp 4300 ------- 0 0.0 1.0 25 48
- 0.585968 0 1 tcp 4300 ------- 0 0.0 1.0 25 48
r 0.587528 0 1 tcp 4300 ------- 0 0.0 1.0 23 44
+ 0.587528 1 0 ack 40 ------- 0 1.0 0.0 23 49
- 0.587528 1 0 ack 40 ------- 0 1.0 0.0 23 49
r 0.58912 1 0 ack 40 ------- 0 1.0 0.0 22 47
+ 0.58912 0 1 tcp 4300 ------- 0 0.0 1.0 26 50
- 0.589408 0 1 tcp 4300 ------- 0 0.0 1.0 26 50
r 0.590968 0 1 tcp 4300 ------- 0 0.0 1.0 24 46
+ 0.590968 1 0 ack 40 ------- 0 1.0 0.0 24 51
- 0.590968 1 0 ack 40 ------- 0 1.0 0.0 24 51
r 0.59256 1 0 ack 40 ------- 0 1.0 0.0 23 49
+ 0.59256 0 1 tcp 4300 ------- 0 0.0 1.0 27 52
- 0.592848 0 1 tcp 4300 ------- 0 0.0 1.0 27 52
r 0.594408 0 1 tcp 4300 ------- 0 0.0 1.0 25 48
+ 0.594408 1 0 ack 40 ------- 0 1.0 0.0 25 53
- 0.594408 1 0 ack 40 ------- 0 1.0 0.0 25 53
r 0.596 1 0 ack 40 ------- 0 1.0 0.0 24 51
+ 0.596 0 1 tcp 4300 ------- 0 0.0 1.0 28 54
- 0.596288 0 1 tcp 4300 ------- 0 0.0 1.0 28 54
r 0.597848 0 1 tcp 4300 ------- 0 0.0 1.0 26 50
+ 0.597848 1 0 ack 40 ------- 0 1.0 0.0 26 55
- 0.597848 1 0 ack 40 ------- 0 1.0 0.0 26 55
r 0.59944 1 0 ack 40 ------- 0 1.0 0.0 25 53
+ 0.59944 0 1 tcp 4300 ------- 0 0.0 1.0 29 56
- 0.599728 0 1 tcp 4300 ------- 0 0.0 1.0 29 56
r 0.601288 0 1 tcp 4300 ------- 0 0.0 1.0 27 52
+ 0.601288 1 0 ack 40 ------- 0 1.0 0.0 27 57
- 0.601288 1 0 ack 40 ------- 0 1.0 0.0 27 57
r 0.60288 1 0 ack 40 ------- 0 1.0 0.0 26 55
+ 0.60288 0 1 tcp 4300 ------- 0 0.0 1.0 30 58
- 0.603168 0 1 tcp 4300 ------- 0 0.0 1.0 30 58
r 0.604728 0 1 tcp 4300 ------- 0 0.0 1.0 28 54
+ 0.604728 1 0 ack 40 ------- 0 1.0 0.0 28 59
- 0.604728 1 0 ack 40 ------- 0 1.0 0.0 28 59
r 0.60632 1 0 ack 40 ------- 0 1.0 0.0 27 57
+ 0.60632 0 1 tcp 4300 ------- 0 0.0 1.0 31 60
- 0.606608 0 1 tcp 4300 ------- 0 0.0 1.0 31 60
r 0.608168 0 1 tcp 4300 ------- 0 0.0 1.0 29 56
+ 0.608168 1 0 ack 40 ------- 0 1.0 0.0 29 61
- 0.608168 1 0 ack 40 ------- 0 1.0 0.0 29 61
r 0.60976 1 0 ack 40 ------- 0 1.0 0.0 28 59
+ 0.60976 0 1 tcp 4300 ------- 0 0.0 1.0 32 62
- 0.610048 0 1 tcp 4300 ------- 0 0.0 1.0 32 62
r 0.611608 0 1 tcp 4300 ------- 0 0.0 1.0 30 58
+ 0.611608 1 0 ack 40 ------- 0 1.0 0.0 30 63
- 0.611608 1 0 ack 40 ------- 0 1.0 0.0 30 63
r 0.6132 1 0 ack 40 ------- 0 1.0 0.0 29 61
+ 0.6132 0 1 tcp 4300 ------- 0 0.0 1.0 33 64
- 0.613488 0 1 tcp 4300 ------- 0 0.0 1.0 33 64
r 0.615048 0 1 tcp 4300 ------- 0 0.0 1.0 31 60
+ 0.615048 1 0 ack 40 ------- 0 1.0 0.0 31 65
- 0.615048 1 0 ack 40 ------- 0 1.0 0.0 31 65
r 0.61664 1 0 ack 40 ------- 0 1.0 0.0 30 63
+ 0.61664 0 1 tcp 4300 ------- 0 0.0 1.0 34 66
- 0.616928 0 1 tcp 4300 ------- 0 0.0 1.0 34 66
r 0.618488 0 1 tcp 4300 ------- 0 0.0 1.0 32 62
+ 0.618488 1 0 ack 40 ------- 0 1.0 0.0 32 67
- 0.618488 1 0 ack 40 ------- 0 1.0 0.0 32 67
r 0.62008 1 0 ack 40 ------- 0 1.0 0.0 31 65
+ 0.62008 0 1 tcp 4300 ------- 0 0.0 1.0 35 68
- 0.620368 0 1 tcp 4300 ------- 0 0.0 1.0 35 68
r 0.621928 0 1 tcp 4300 ------- 0 0.0 1.0 33 64
+ 0.621928 1 0 ack 40 ------- 0 1.0 0.0 33 69
- 0.621928 1 0 ack 40 ------- 0 1.0 0.0 33 69
r 0.62352 1 0 ack 40 ------- 0 1.0 0.0 32 67
+ 0.62352 0 1 tcp 4300 ------- 0 0.0 1.0 36 70
- 0.623808 0 1 tcp 4300 ------- 0 0.0 1.0 36 70
r 0.625368 0 1 tcp 4300 ------- 0 0.0 1.0 34 66
+ 0.625368 1 0 ack 40 ------- 0 1.0 0.0 34 71
- 0.625368 1 0 ack 40 ------- 0 1.0 0.0 34 71
r 0.62696 1 0 ack 40 ------- 0 1.0 0.0 33 69
+ 0.62696 0 1 tcp 4300 ------- 0 0.0 1.0 37 72
- 0.627248 0 1 tcp 4300 ------- 0 0.0 1.0 37 72
r 0.628808 0 1 tcp 4300 ------- 0 0.0 1.0 35 68
+ 0.628808 1 0 ack 40 ------- 0 1.0 0.0 35 73
- 0.628808 1 0 ack 40 ------- 0 1.0 0.0 35 73
r 0.6304 1 0 ack 40 ------- 0 1.0 0.0 34 71
+ 0.6304 0 1 tcp 4300 ------- 0 0.0 1.0 38 74
- 0.630688 0 1 tcp 4300 ------- 0 0.0 1.0 38 74
r 0.632248 0 1 tcp 4300 ------- 0 0.0 1.0 36 70
+ 0.632248 1 0 ack 40 ------- 0 1.0 0.0 36 75
- 0.632248 1 0 ack 40 ------- 0 1.0 0.0 36 75
r 0.63384 1 0 ack 40 ------- 0 1.0 0.0 35 73
+ 0.63384 0 1 tcp 4300 ------- 0 0.0 1.0 39 76
- 0.634128 0 1 tcp 4300 ------- 0 0.0 1.0 39 76
r 0.635688 0 1 tcp 4300 ------- 0 0.0 1.0 37 72
+ 0.635688 1 0 ack 40 ------- 0 1.0 0.0 37 77
- 0.635688 1 0 ack 40 ------- 0 1.0 0.0 37 77
r 0.63728 1 0 ack 40 ------- 0 1.0 0.0 36 75
+ 0.63728 0 1 tcp 4300 ------- 0 0.0 1.0 40 78
- 0.637568 0 1 tcp 4300 ------- 0 0.0 1.0 40 78
r 0.639128 0 1 tcp 4300 ------- 0 0.0 1.0 38 74
+ 0.639128 1 0 ack 40 ------- 0 1.0 0.0 38 79
- 0.639128 1 0 ack 40 ------- 0 1.0 0.0 38 79
r 0.64072 1 0 ack 40 ------- 0 1.0 0.0 37 77
+ 0.64072 0 1 tcp 4300 ------- 0 0.0 1.0 41 80
- 0.641008 0 1 tcp 4300 ------- 0 0.0 1.0 41 80
r 0.642568 0 1 tcp 4300 ------- 0 0.0 1.0 39 76
+ 0.642568 1 0 ack 40 ------- 0 1.0 0.0 39 81
- 0.642568 1 0 ack 40 ------- 0 1.0 0.0 39 81
r 0.64416 1 0 ack 40 ------- 0 1.0 0.0 38 79
+ 0.64416 0 1 tcp 4300 ------- 0 0.0 1.0 42 82
- 0.644448 0 1 tcp 4300 ------- 0 0.0 1.0 42 82
r 0.646008 0 1 tcp 4300 ------- 0 0.0 1.0 40 78
+ 0.646008 1 0 ack 40 ------- 0 1.0 0.0 40 83
- 0.646008 1 0 ack 40 ------- 0 1.0 0.0 40 83
r 0.6476 1 0 ack 40 ------- 0 1.0 0.0 39 81
+ 0.6476 0 1 tcp 4300 ------- 0 0.0 1.0 43 84
- 0.647888 0 1 tcp 4300 ------- 0 0.0 1.0 43 84
r 0.649448 0 1 tcp 4300 ------- 0 0.0 1.0 41 80
+ 0.649448 1 0 ack 40 ------- 0 1.0 0.0 41 85
- 0.649448 1 0 ack 40 ------- 0 1.0 0.0 41 85
r 0.65104 1 0 ack 40 ------- 0 1.0 0.0 40 83
+ 0.65104 0 1 tcp 4300 ------- 0 0.0 1.0 44 86
- 0.651328 0 1 tcp 4300 ------- 0 0.0 1.0 44 86
r 0.652888 0 1 tcp 4300 ------- 0 0.0 1.0 42 82
+ 0.652888 1 0 ack 40 ------- 0 1.0 0.0 42 87
- 0.652888 1 0 ack 40 ------- 0 1.0 0.0 42 87
r 0.65448 1 0 ack 40 ------- 0 1.0 0.0 41 85
+ 0.65448 0 1 tcp 4300 ------- 0 0.0 1.0 45 88
- 0.654768 0 1 tcp 4300 ------- 0 0.0 1.0 45 88
r 0.656328 0 1 tcp 4300 ------- 0 0.0 1.0 43 84
+ 0.656328 1 0 ack 40 ------- 0 1.0 0.0 43 89
- 0.656328 1 0 ack 40 ------- 0 1.0 0.0 43 89
r 0.65792 1 0 ack 40 ------- 0 1.0 0.0 42 87
+ 0.65792 0 1 tcp 4300 ------- 0 0.0 1.0 46 90
- 0.658208 0 1 tcp 4300 ------- 0 0.0 1.0 46 90
r 0.659768 0 1 tcp 4300 ------- 0 0.0 1.0 44 86
+ 0.659768 1 0 ack 40 ------- 0 1.0 0.0 44 91
- 0.659768 1 0 ack 40 ------- 0 1.0 0.0 44 91
r 0.66136 1 0 ack 40 ------- 0 1.0 0.0 43 89
+ 0.66136 0 1 tcp 4300 ------- 0 0.0 1.0 47 92
- 0.661648 0 1 tcp 4300 ------- 0 0.0 1.0 47 92
r 0.663208 0 1 tcp 4300 ------- 0 0.0 1.0 45 88
+ 0.663208 1 0 ack 40 ------- 0 1.0 0.0 45 93
- 0.663208 1 0 ack 40 ------- 0 1.0 0.0 45 93
r 0.6648 1 0 ack 40 ------- 0 1.0 0.0 44 91
+ 0.6648 0 1 tcp 4300 ------- 0 0.0 1.0 48 94
- 0.665088 0 1 tcp 4300 ------- 0 0.0 1.0 48 94
r 0.666648 0 1 tcp 4300 ------- 0 0.0 1.0 46 90
+ 0.666648 1 0 ack 40 ------- 0 1.0 0.0 46 95
- 0.666648 1 0 ack 40 ------- 0 1.0 0.0 46 95
r 0.66824 1 0 ack 40 ------- 0 1.0 0.0 45 93
+ 0.66824 0 1 tcp 4300 ------- 0 0.0 1.0 49 96
- 0.668528 0 1 tcp 4300 ------- 0 0.0 1.0 49 96
r 0.670088 0 1 tcp 4300 ------- 0 0.0 1.0 47 92
+ 0.670088 1 0 ack 40 ------- 0 1.0 0.0 47 97
- 0.670088 1 0 ack 40 ------- 0 1.0 0.0 47 97
r 0.67168 1 0 ack 40 ------- 0 1.0 0.0 46 95
+ 0.67168 0 1 tcp 4300 ------- 0 0.0 1.0 50 98
- 0.671968 0 1 tcp 4300 ------- 0 0.0 1.0 50 98
r 0.673528 0 1 tcp 4300 ------- 0 0.0 1.0 48 94
+ 0.673528 1 0 ack 40 ------- 0 1.0 0.0 48 99
- 0.673528 1 0 ack 40 ------- 0 1.0 0.0 48 99
r 0.67512 1 0 ack 40 ------- 0 1.0 0.0 47 97
+ 0.67512 0 1 tcp 4300 ------- 0 0.0 1.0 51 100
- 0.675408 0 1 tcp 4300 ------- 0 0.0 1.0 51 100
r 0.676968 0 1 tcp 4300 ------- 0 0.0 1.0 49 96
+ 0.676968 1 0 ack 40 ------- 0 1.0 0.0 49 101
- 0.676968 1 0 ack 40 ------- 0 1.0 0.0 49 101
r 0.67856 1 0 ack 40 ------- 0 1.0 0.0 48 99
+ 0.67856 0 1 tcp 4300 ------- 0 0.0 1.0 52 102
- 0.678848 0 1 tcp 4300 ------- 0 0.0 1.0 52 102
r 0.680408 0 1 tcp 4300 ------- 0 0.0 1.0 50 98
+ 0.680408 1 0 ack 40 ------- 0 1.0 0.0 50 103
- 0.680408 1 0 ack 40 ------- 0 1.0 0.0 50 103
r 0.682 1 0 ack 40 ------- 0 1.0 0.0 49 101
+ 0.682 0 1 tcp 4300 ------- 0 0.0 1.0 53 104
- 0.682288 0 1 tcp 4300 ------- 0 0.0 1.0 53 104
r 0.683848 0 1 tcp 4300 ------- 0 0.0 1.0 51 100
+ 0.683848 1 0 ack 40 ------- 0 1.0 0.0 51 105
- 0.683848 1 0 ack 40 ------- 0 1.0 0.0 51 105
r 0.68544 1 0 ack 40 ------- 0 1.0 0.0 50 103
+ 0.68544 0 1 tcp 4300 ------- 0 0.0 1.0 54 106
- 0.685728 0 1 tcp 4300 ------- 0 0.0 1.0 54 106
r 0.687288 0 1 tcp 4300 ------- 0 0.0 1.0 52 102
+ 0.687288 1 0 ack 40 ------- 0 1.0 0.0 52 107
- 0.687288 1 0 ack 40 ------- 0 1.0 0.0 52 107
r 0.68888 1 0 ack 40 ------- 0 1.0 0.0 51 105
+ 0.68888 0 1 tcp 4300 ------- 0 0.0 1.0 55 108
- 0.689168 0 1 tcp 4300 ------- 0 0.0 1.0 55 108
r 0.690728 0 1 tcp 4300 ------- 0 0.0 1.0 53 104
+ 0.690728 1 0 ack 40 ------- 0 1.0 0.0 53 109
- 0.690728 1 0 ack 40 ------- 0 1.0 0.0 53 109
r 0.69232 1 0 ack 40 ------- 0 1.0 0.0 52 107
+ 0.69232 0 1 tcp 4300 ------- 0 0.0 1.0 56 110
- 0.692608 0 1 tcp 4300 ------- 0 0.0 1.0 56 110
r 0.694168 0 1 tcp 4300 ------- 0 0.0 1.0 54 106
+ 0.694168 1 0 ack 40 ------- 0 1.0 0.0 54 111
- 0.694168 1 0 ack 40 ------- 0 1.0 0.0 54 111
r 0.69576 1 0 ack 40 ------- 0 1.0 0.0 53 109
+ 0.69576 0 1 tcp 4300 ------- 0 0.0 1.0 57 112
- 0.696048 0 1 tcp 4300 ------- 0 0.0 1.0 57 112
r 0.697608 0 1 tcp 4300 ------- 0 0.0 1.0 55 108
+ 0.697608 1 0 ack 40 ------- 0 1.0 0.0 55 113
- 0.697608 1 0 ack 40 ------- 0 1.0 0.0 55 113
r 0.6992 1 0 ack 40 ------- 0 1.0 0.0 54 111
+ 0.6992 0 1 tcp 4300 ------- 0 0.0 1.0 58 114
- 0.699488 0 1 tcp 4300 ------- 0 0.0 1.0 58 114
r 0.701048 0 1 tcp 4300 ------- 0 0.0 1.0 56 110
+ 0.701048 1 0 ack 40 ------- 0 1.0 0.0 56 115
- 0.701048 1 0 ack 40 ------- 0 1.0 0.0 56 115
r 0.70264 1 0 ack 40 ------- 0 1.0 0.0 55 113
+ 0.70264 0 1 tcp 4300 ------- 0 0.0 1.0 59 116
- 0.702928 0 1 tcp 4300 ------- 0 0.0 1.0 59 116
r 0.704488 0 1 tcp 4300 ------- 0 0.0 1.0 57 112
+ 0.704488 1 0 ack 40 ------- 0 1.0 0.0 57 117
- 0.704488 1 0 ack 40 ------- 0 1.0 0.0 57 117
r 0.70608 1 0 ack 40 ------- 0 1.0 0.0 56 115
+ 0.70608 0 1 tcp 4300 ------- 0 0.0 1.0 60 118
- 0.706368 0 1 tcp 4300 ------- 0 0.0 1.0 60 118
r 0.707928 0 1 tcp 4300 ------- 0 0.0 1.0 58 114
+ 0.707928 1 0 ack 40 ------- 0 1.0 0.0 58 119
- 0.707928 1 0 ack 40 ------- 0 1.0 0.0 58 119
r 0.70952 1 0 ack 40 ------- 0 1.0 0.0 57 117
+ 0.70952 0 1 tcp 4300 ------- 0 0.0 1.0 61 120
- 0.709808 0 1 tcp 4300 ------- 0 0.0 1.0 61 120
r 0.711368 0 1 tcp 4300 ------- 0 0.0 1.0 59 116
+ 0.711368 1 0 ack 40 ------- 0 1.0 0.0 59 121
- 0.711368 1 0 ack 40 ------- 0 1.0 0.0 59 121
r 0.71296 1 0 ack 40 ------- 0 1.0 0.0 58 119
+ 0.71296 0 1 tcp 4300 ------- 0 0.0 1.0 62 122
- 0.713248 0 1 tcp 4300 ------- 0 0.0 1.0 62 122
r 0.714808 0 1 tcp 4300 ------- 0 0.0 1.0 60 118
+ 0.714808 1 0 ack 40 ------- 0 1.0 0.0 60 123
- 0.714808 1 0 ack 40 ------- 0 1.0 0.0 60 123
r 0.7164 1 0 ack 40 ------- 0 1.0 0.0 59 121
+ 0.7164 0 1 tcp 4300 ------- 0 0.0 1.0 63 124
- 0.716688 0 1 tcp 4300 ------- 0 0.0 1.0 63 124
r 0.718248 0 1 tcp 4300 ------- 0 0.0 1.0 61 120
+ 0.718248 1 0 ack 40 ------- 0 1.0 0.0 61 125
- 0.718248 1 0 ack 40 ------- 0 1.0 0.0 61 125
r 0.71984 1 0 ack 40 ------- 0 1.0 0.0 60 123
+ 0.71984 0 1 tcp 4300 ------- 0 0.0 1.0 64 126
- 0.720128 0 1 tcp 4300 ------- 0 0.0 1.0 64 126
r 0.721688 0 1 tcp 4300 ------- 0 0.0 1.0 62 122
+ 0.721688 1 0 ack 40 ------- 0 1.0 0.0 62 127
- 0.721688 1 0 ack 40 ------- 0 1.0 0.0 62 127
r 0.72328 1 0 ack 40 ------- 0 1.0 0.0 61 125
+ 0.72328 0 1 tcp 4300 ------- 0 0.0 1.0 65 128
- 0.723568 0 1 tcp 4300 ------- 0 0.0 1.0 65 128
r 0.725128 0 1 tcp 4300 ------- 0 0.0 1.0 63 124
+ 0.725128 1 0 ack 40 ------- 0 1.0 0.0 63 129
- 0.725128 1 0 ack 40 ------- 0 1.0 0.0 63 129
r 0.72672 1 0 ack 40 ------- 0 1.0 0.0 62 127
+ 0.72672 0 1 tcp 4300 ------- 0 0.0 1.0 66 130
- 0.727008 0 1 tcp 4300 ------- 0 0.0 1.0 66 130
r 0.728568 0 1 tcp 4300 ------- 0 0.0 1.0 64 126
+ 0.728568 1 0 ack 40 ------- 0 1.0 0.0 64 131
- 0.728568 1 0 ack 40 ------- 0 1.0 0.0 64 131
r 0.73016 1 0 ack 40 ------- 0 1.0 0.0 63 129
+ 0.73016 0 1 tcp 4300 ------- 0 0.0 1.0 67 132
- 0.730448 0 1 tcp 4300 ------- 0 0.0 1.0 67 132
r 0.732008 0 1 tcp 4300 ------- 0 0.0 1.0 65 128
+ 0.732008 1 0 ack 40 ------- 0 1.0 0.0 65 133
- 0.732008 1 0 ack 40 ------- 0 1.0 0.0 65 133
r 0.7336 1 0 ack 40 ------- 0 1.0 0.0 64 131
+ 0.7336 0 1 tcp 4300 ------- 0 0.0 1.0 68 134
- 0.733888 0 1 tcp 4300 ------- 0 0.0 1.0 68 134
r 0.735448 0 1 tcp 4300 ------- 0 0.0 1.0 66 130
+ 0.735448 1 0 ack 40 ------- 0 1.0 0.0 66 135
- 0.735448 1 0 ack 40 ------- 0 1.0 0.0 66 135
r 0.73704 1 0 ack 40 ------- 0 1.0 0.0 65 133
+ 0.73704 0 1 tcp 4300 ------- 0 0.0 1.0 69 136
- 0.737328 0 1 tcp 4300 ------- 0 0.0 1.0 69 136
r 0.738888 0 1 tcp 4300 ------- 0 0.0 1.0 67 132
+ 0.738888 1 0 ack 40 ------- 0 1.0 0.0 67 137
- 0.738888 1 0 ack 40 ------- 0 1.0 0.0 67 137
r 0.74048 1 0 ack 40 ------- 0 1.0 0.0 66 135
+ 0.74048 0 1 tcp 4300 ------- 0 0.0 1.0 70 138
- 0.740768 0 1 tcp 4300 ------- 0 0.0 1.0 70 138
r 0.742328 0 1 tcp 4300 ------- 0 0.0 1.0 68 134
+ 0.742328 1 0 ack 40 ------- 0 1.0 0.0 68 139
- 0.742328 1 0 ack 40 ------- 0 1.0 0.0 68 139
r 0.74392 1 0 ack 40 ------- 0 1.0 0.0 67 137
+ 0.74392 0 1 tcp 4300 ------- 0 0.0 1.0 71 140
- 0.744208 0 1 tcp 4300 ------- 0 0.0 1.0 71 140
r 0.745768 0 1 tcp 4300 ------- 0 0.0 1.0 69 136
+ 0.745768 1 0 ack 40 ------- 0 1.0 0.0 69 141
- 0.745768 1 0 ack 40 ------- 0 1.0 0.0 69 141
r 0.74736 1 0 ack 40 ------- 0 1.0 0.0 68 139
+ 0.74736 0 1 tcp 4300 ------- 0 0.0 1.0 72 142
- 0.747648 0 1 tcp 4300 ------- 0 0.0 1.0 72 142
r 0.749208 0 1 tcp 4300 ------- 0 0.0 1.0 70 138
+ 0.749208 1 0 ack 40 ------- 0 1.0 0.0 70 143
- 0.749208 1 0 ack 40 ------- 0 1.0 0.0 70 143
r 0.7508 1 0 ack 40 ------- 0 1.0 0.0 69 141
+ 0.7508 0 1 tcp 4300 ------- 0 0.0 1.0 73 144
- 0.751088 0 1 tcp 4300 ------- 0 0.0 1.0 73 144
r 0.752648 0 1 tcp 4300 ------- 0 0.0 1.0 71 140
+ 0.752648 1 0 ack 40 ------- 0 1.0 0.0 71 145
- 0.752648 1 0 ack 40 ------- 0 1.0 0.0 71 145
r 0.75424 1 0 ack 40 ------- 0 1.0 0.0 70 143
+ 0.75424 0 1 tcp 4300 ------- 0 0.0 1.0 74 146
- 0.754528 0 1 tcp 4300 ------- 0 0.0 1.0 74 146
r 0.756088 0 1 tcp 4300 ------- 0 0.0 1.0 72 142
+ 0.756088 1 0 ack 40 ------- 0 1.0 0.0 72 147
- 0.756088 1 0 ack 40 ------- 0 1.0 0.0 72 147
r 0.75768 1 0 ack 40 ------- 0 1.0 0.0 71 145
+ 0.75768 0 1 tcp 4300 ------- 0 0.0 1.0 75 148
- 0.757968 0 1 tcp 4300 ------- 0 0.0 1.0 75 148
r 0.759528 0 1 tcp 4300 ------- 0 0.0 1.0 73 144
+ 0.759528 1 0 ack 40 ------- 0 1.0 0.0 73 149
- 0.759528 1 0 ack 40 ------- 0 1.0 0.0 73 149
r 0.76112 1 0 ack 40 ------- 0 1.0 0.0 72 147
+ 0.76112 0 1 tcp 4300 ------- 0 0.0 1.0 76 150
- 0.761408 0 1 tcp 4300 ------- 0 0.0 1.0 76 150
r 0.762968 0 1 tcp 4300 ------- 0 0.0 1.0 74 146
+ 0.762968 1 0 ack 40 ------- 0 1.0 0.0 74 151
- 0.762968 1 0 ack 40 ------- 0 1.0 0.0 74 151
r 0.76456 1 0 ack 40 ------- 0 1.0 0.0 73 149
+ 0.76456 0 1 tcp 4300 ------- 0 0.0 1.0 77 152
- 0.764848 0 1 tcp 4300 ------- 0 0.0 1.0 77 152
r 0.766408 0 1 tcp 4300 ------- 0 0.0 1.0 75 148
+ 0.766408 1 0 ack 40 ------- 0 1.0 0.0 75 153
- 0.766408 1 0 ack 40 ------- 0 1.0 0.0 75 153
r 0.768 1 0 ack 40 ------- 0 1.0 0.0 74 151
+ 0.768 0 1 tcp 4300 ------- 0 0.0 1.0 78 154
- 0.768288 0 1 tcp 4300 ------- 0 0.0 1.0 78 154
r 0.769848 0 1 tcp 4300 ------- 0 0.0 1.0 76 150
+ 0.769848 1 0 ack 40 ------- 0 1.0 0.0 76 155
- 0.769848 1 0 ack 40 ------- 0 1.0 0.0 76 155
r 0.77144 1 0 ack 40 ------- 0 1.0 0.0 75 153
+ 0.77144 0 1 tcp 4300 ------- 0 0.0 1.0 79 156
- 0.771728 0 1 tcp 4300 ------- 0 0.0 1.0 79 156
r 0.773288 0 1 tcp 4300 ------- 0 0.0 1.0 77 152
+ 0.773288 1 0 ack 40 ------- 0 1.0 0.0 77 157
- 0.773288 1 0 ack 40 ------- 0 1.0 0.0 77 157
r 0.77488 1 0 ack 40 ------- 0 1.0 0.0 76 155
+ 0.77488 0 1 tcp 4300 ------- 0 0.0 1.0 80 158
- 0.775168 0 1 tcp 4300 ------- 0 0.0 1.0 80 158
r 0.776728 0 1 tcp 4300 ------- 0 0.0 1.0 78 154
+ 0.776728 1 0 ack 40 ------- 0 1.0 0.0 78 159
- 0.776728 1 0 ack 40 ------- 0 1.0 0.0 78 159
r 0.77832 1 0 ack 40 ------- 0 1.0 0.0 77 157
+ 0.77832 0 1 tcp 4300 ------- 0 0.0 1.0 81 160
- 0.778608 0 1 tcp 4300 ------- 0 0.0 1.0 81 160
r 0.780168 0 1 tcp 4300 ------- 0 0.0 1.0 79 156
+ 0.780168 1 0 ack 40 ------- 0 1.0 0.0 79 161
- 0.780168 1 0 ack 40 ------- 0 1.0 0.0 79 161
r 0.78176 1 0 ack 40 ------- 0 1.0 0.0 78 159
+ 0.78176 0 1 tcp 4300 ------- 0 0.0 1.0 82 162
- 0.782048 0 1 tcp 4300 ------- 0 0.0 1.0 82 162
r 0.783608 0 1 tcp 4300 ------- 0 0.0 1.0 80 158
+ 0.783608 1 0 ack 40 ------- 0 1.0 0.0 80 163
- 0.783608 1 0 ack 40 ------- 0 1.0 0.0 80 163
r 0.7852 1 0 ack 40 ------- 0 1.0 0.0 79 161
+ 0.7852 0 1 tcp 4300 ------- 0 0.0 1.0 83 164
- 0.785488 0 1 tcp 4300 ------- 0 0.0 1.0 83 164
r 0.787048 0 1 tcp 4300 ------- 0 0.0 1.0 81 160
+ 0.787048 1 0 ack 40 ------- 0 1.0 0.0 81 165
- 0.787048 1 0 ack 40 ------- 0 1.0 0.0 81 165
r 0.78864 1 0 ack 40 ------- 0 1.0 0.0 80 163
+ 0.78864 0 1 tcp 4300 ------- 0 0.0 1.0 84 166
- 0.788928 0 1 tcp 4300 ------- 0 0.0 1.0 84 166
r 0.790488 0 1 tcp 4300 ------- 0 0.0 1.0 82 162
+ 0.790488 1 0 ack 40 ------- 0 1.0 0.0 82 167
- 0.790488 1 0 ack 40 ------- 0 1.0 0.0 82 167
r 0.79208 1 0 ack 40 ------- 0 1.0 0.0 81 165
+ 0.79208 0 1 tcp 4300 ------- 0 0.0 1.0 85 168
- 0.792368 0 1 tcp 4300 ------- 0 0.0 1.0 85 168
r 0.793928 0 1 tcp 4300 ------- 0 0.0 1.0 83 164
+ 0.793928 1 0 ack 40 ------- 0 1.0 0.0 83 169
- 0.793928 1 0 ack 40 ------- 0 1.0 0.0 83 169
r 0.79552 1 0 ack 40 ------- 0 1.0 0.0 82 167
+ 0.79552 0 1 tcp 4300 ------- 0 0.0 1.0 86 170
- 0.795808 0 1 tcp 4300 ------- 0 0.0 1.0 86 170
r 0.797368 0 1 tcp 4300 ------- 0 0.0 1.0 84 166
+ 0.797368 1 0 ack 40 ------- 0 1.0 0.0 84 171
- 0.797368 1 0 ack 40 ------- 0 1.0 0.0 84 171
r 0.79896 1 0 ack 40 ------- 0 1.0 0.0 83 169
+ 0.79896 0 1 tcp 4300 ------- 0 0.0 1.0 87 172
- 0.799248 0 1 tcp 4300 ------- 0 0.0 1.0 87 172
r 0.800808 0 1 tcp 4300 ------- 0 0.0 1.0 85 168
+ 0.800808 1 0 ack 40 ------- 0 1.0 0.0 85 173
- 0.800808 1 0 ack 40 ------- 0 1.0 0.0 85 173
r 0.8024 1 0 ack 40 ------- 0 1.0 0.0 84 171
+ 0.8024 0 1 tcp 4300 ------- 0 0.0 1.0 88 174
- 0.802688 0 1 tcp 4300 ------- 0 0.0 1.0 88 174
r 0.804248 0 1 tcp 4300 ------- 0 0.0 1.0 86 170
+ 0.804248 1 0 ack 40 ------- 0 1.0 0.0 86 175
- 0.804248 1 0 ack 40 ------- 0 1.0 0.0 86 175
r 0.80584 1 0 ack 40 ------- 0 1.0 0.0 85 173
+ 0.80584 0 1 tcp 4300 ------- 0 0.0 1.0 89 176
- 0.806128 0 1 tcp 4300 ------- 0 0.0 1.0 89 176
r 0.807688 0 1 tcp 4300 ------- 0 0.0 1.0 87 172
+ 0.807688 1 0 ack 40 ------- 0 1.0 0.0 87 177
- 0.807688 1 0 ack 40 ------- 0 1.0 0.0 87 177
r 0.80928 1 0 ack 40 ------- 0 1.0 0.0 86 175
+ 0.80928 0 1 tcp 4300 ------- 0 0.0 1.0 90 178
- 0.809568 0 1 tcp 4300 ------- 0 0.0 1.0 90 178
r 0.811128 0 1 tcp 4300 ------- 0 0.0 1.0 88 174
+ 0.811128 1 0 ack 40 ------- 0 1.0 0.0 88 179
- 0.811128 1 0 ack 40 ------- 0 1.0 0.0 88 179
r 0.81272 1 0 ack 40 ------- 0 1.0 0.0 87 177
+ 0.81272 0 1 tcp 4300 ------- 0 0.0 1.0 91 180
- 0.813008 0 1 tcp 4300 ------- 0 0.0 1.0 91 180
r 0.814568 0 1 tcp 4300 ------- 0 0.0 1.0 89 176
+ 0.814568 1 0 ack 40 ------- 0 1.0 0.0 89 181
- 0.814568 1 0 ack 40 ------- 0 1.0 0.0 89 181
r 0.81616 1 0 ack 40 ------- 0 1.0 0.0 88 179
+ 0.81616 0 1 tcp 4300 ------- 0 0.0 1.0 92 182
- 0.816448 0 1 tcp 4300 ------- 0 0.0 1.0 92 182
r 0.818008 0 1 tcp 4300 ------- 0 0.0 1.0 90 178
+ 0.818008 1 0 ack 40 ------- 0 1.0 0.0 90 183
- 0.818008 1 0 ack 40 ------- 0 1.0 0.0 90 183
r 0.8196 1 0 ack 40 ------- 0 1.0 0.0 89 181
+ 0.8196 0 1 tcp 4300 ------- 0 0.0 1.0 93 184
- 0.819888 0 1 tcp 4300 ------- 0 0.0 1.0 93 184
r 0.821448 0 1 tcp 4300 ------- 0 0.0 1.0 91 180
+ 0.821448 1 0 ack 40 ------- 0 1.0 0.0 91 185
- 0.821448 1 0 ack 40 ------- 0 1.0 0.0 91 185
r 0.82304 1 0 ack 40 ------- 0 1.0 0.0 90 183
+ 0.82304 0 1 tcp 4300 ------- 0 0.0 1.0 94 186
- 0.823328 0 1 tcp 4300 ------- 0 0.0 1.0 94 186
r 0.824888 0 1 tcp 4300 ------- 0 0.0 1.0 92 182
+ 0.824888 1 0 ack 40 ------- 0 1.0 0.0 92 187
- 0.824888 1 0 ack 40 ------- 0 1.0 0.0 92 187
r 0.82648 1 0 ack 40 ------- 0 1.0 0.0 91 185
+ 0.82648 0 1 tcp 4300 ------- 0 0.0 1.0 95 188
- 0.826768 0 1 tcp 4300 ------- 0 0.0 1.0 95 188
r 0.828328 0 1 tcp 4300 ------- 0 0.0 1.0 93 184
+ 0.828328 1 0 ack 40 ------- 0 1.0 0.0 93 189
- 0.828328 1 0 ack 40 ------- 0 1.0 0.0 93 189
r 0.82992 1 0 ack 40 ------- 0 1.0 0.0 92 187
+ 0.82992 0 1 tcp 4300 ------- 0 0.0 1.0 96 190
- 0.830208 0 1 tcp 4300 ------- 0 0.0 1.0 96 190
r 0.831768 0 1 tcp 4300 ------- 0 0.0 1.0 94 186
+ 0.831768 1 0 ack 40 ------- 0 1.0 0.0 94 191
- 0.831768 1 0 ack 40 ------- 0 1.0 0.0 94 191
r 0.83336 1 0 ack 40 ------- 0 1.0 0.0 93 189
+ 0.83336 0 1 tcp 4300 ------- 0 0.0 1.0 97 192
- 0.833648 0 1 tcp 4300 ------- 0 0.0 1.0 97 192
r 0.835208 0 1 tcp 4300 ------- 0 0.0 1.0 95 188
+ 0.835208 1 0 ack 40 ------- 0 1.0 0.0 95 193
- 0.835208 1 0 ack 40 ------- 0 1.0 0.0 95 193
r 0.8368 1 0 ack 40 ------- 0 1.0 0.0 94 191
+ 0.8368 0 1 tcp 4300 ------- 0 0.0 1.0 98 194
- 0.837088 0 1 tcp 4300 ------- 0 0.0 1.0 98 194
r 0.838648 0 1 tcp 4300 ------- 0 0.0 1.0 96 190
+ 0.838648 1 0 ack 40 ------- 0 1.0 0.0 96 195
- 0.838648 1 0 ack 40 ------- 0 1.0 0.0 96 195
r 0.84024 1 0 ack 40 ------- 0 1.0 0.0 95 193
+ 0.84024 0 1 tcp 4300 ------- 0 0.0 1.0 99 196
- 0.840528 0 1 tcp 4300 ------- 0 0.0 1.0 99 196
r 0.842088 0 1 tcp 4300 ------- 0 0.0 1.0 97 192
+ 0.842088 1 0 ack 40 ------- 0 1.0 0.0 97 197
- 0.842088 1 0 ack 40 ------- 0 1.0 0.0 97 197
r 0.84368 1 0 ack 40 ------- 0 1.0 0.0 96 195
+ 0.84368 0 1 tcp 4300 ------- 0 0.0 1.0 100 198
- 0.843968 0 1 tcp 4300 ------- 0 0.0 1.0 100 198
r 0.845528 0 1 tcp 4300 ------- 0 0.0 1.0 98 194
+ 0.845528 1 0 ack 40 ------- 0 1.0 0.0 98 199
- 0.845528 1 0 ack 40 ------- 0 1.0 0.0 98 199
r 0.84712 1 0 ack 40 ------- 0 1.0 0.0 97 197
+ 0.84712 0 1 tcp 4300 ------- 0 0.0 1.0 101 200
- 0.847408 0 1 tcp 4300 ------- 0 0.0 1.0 101 200
r 0.848968 0 1 tcp 4300 ------- 0 0.0 1.0 99 196
+ 0.848968 1 0 ack 40 ------- 0 1.0 0.0 99 201
- 0.848968 1 0 ack 40 ------- 0 1.0 0.0 99 201
r 0.85056 1 0 ack 40 ------- 0 1.0 0.0 98 199
+ 0.85056 0 1 tcp 4300 ------- 0 0.0 1.0 102 202
- 0.850848 0 1 tcp 4300 ------- 0 0.0 1.0 102 202
r 0.852408 0 1 tcp 4300 ------- 0 0.0 1.0 100 198
+ 0.852408 1 0 ack 40 ------- 0 1.0 0.0 100 203
- 0.852408 1 0 ack 40 ------- 0 1.0 0.0 100 203
r 0.854 1 0 ack 40 ------- 0 1.0 0.0 99 201
+ 0.854 0 1 tcp 4300 ------- 0 0.0 1.0 103 204
- 0.854288 0 1 tcp 4300 ------- 0 0.0 1.0 103 204
r 0.855848 0 1 tcp 4300 ------- 0 0.0 1.0 101 200
+ 0.855848 1 0 ack 40 ------- 0 1.0 0.0 101 205
- 0.855848 1 0 ack 40 ------- 0 1.0 0.0 101 205
r 0.85744 1 0 ack 40 ------- 0 1.0 0.0 100 203
+ 0.85744 0 1 tcp 4300 ------- 0 0.0 1.0 104 206
- 0.857728 0 1 tcp 4300 ------- 0 0.0 1.0 104 206
r 0.859288 0 1 tcp 4300 ------- 0 0.0 1.0 102 202
+ 0.859288 1 0 ack 40 ------- 0 1.0 0.0 102 207
- 0.859288 1 0 ack 40 ------- 0 1.0 0.0 102 207
r 0.86088 1 0 ack 40 ------- 0 1.0 0.0 101 205
+ 0.86088 0 1 tcp 4300 ------- 0 0.0 1.0 105 208
- 0.861168 0 1 tcp 4300 ------- 0 0.0 1.0 105 208
r 0.862728 0 1 tcp 4300 ------- 0 0.0 1.0 103 204
+ 0.862728 1 0 ack 40 ------- 0 1.0 0.0 103 209
- 0.862728 1 0 ack 40 ------- 0 1.0 0.0 103 209
r 0.86432 1 0 ack 40 ------- 0 1.0 0.0 102 207
+ 0.86432 0 1 tcp 4300 ------- 0 0.0 1.0 106 210
- 0.864608 0 1 tcp 4300 ------- 0 0.0 1.0 106 210
r 0.866168 0 1 tcp 4300 ------- 0 0.0 1.0 104 206
+ 0.866168 1 0 ack 40 ------- 0 1.0 0.0 104 211
- 0.866168 1 0 ack 40 ------- 0 1.0 0.0 104 211
r 0.86776 1 0 ack 40 ------- 0 1.0 0.0 103 209
+ 0.86776 0 1 tcp 4300 ------- 0 0.0 1.0 107 212
- 0.868048 0 1 tcp 4300 ------- 0 0.0 1.0 107 212
r 0.869608 0 1 tcp 4300 ------- 0 0.0 1.0 105 208
+ 0.869608 1 0 ack 40 ------- 0 1.0 0.0 105 213
- 0.869608 1 0 ack 40 ------- 0 1.0 0.0 105 213