V -t * -v 1.0a5 -a 0
A -t * -n 1 -p 0 -o 0x7fffffff -c 30 -a 1
A -t * -h 1 -m 1073741823 -s 0
n -t * -a 0 -s 0 -S UP -v circle -c black -i black
n -t * -a 1 -s 1 -S UP -v circle -c black -i black
l -t * -s 0 -d 1 -S UP -r 10000000 -D 0.0050000000000000001 -c black
n -t 0 -s 0 -S DLABEL -l "SRP_sender" -L ""
n -t 0 -s 1 -S DLABEL -l "SRP_reciever" -L ""
+ -t 0.5 -s 0 -d 1 -p tcp -e 1500 -c 0 -i 0 -a 0 -x {0.0 1.0 0 ------- null}
- -t 0.5 -s 0 -d 1 -p tcp -e 1500 -c 0 -i 0 -a 0 -x {0.0 1.0 0 ------- null}
h -t 0.5 -s 0 -d 1 -p tcp -e 1500 -c 0 -i 0 -a 0 -x {0.0 1.0 -1 ------- null}
+ -t 0.5 -s 0 -d 1 -p tcp -e 1540 -c 0 -i 1 -a 0 -x {0.0 1.0 1 ------- null}
+ -t 0.5 -s 0 -d 1 -p tcp -e 1540 -c 0 -i 2 -a 0 -x {0.0 1.0 2 ------- null}
+ -t 0.5 -s 0 -d 1 -p tcp -e 1540 -c 0 -i 3 -a 0 -x {0.0 1.0 3 ------- null}
+ -t 0.5 -s 0 -d 1 -p tcp -e 1540 -c 0 -i 4 -a 0 -x {0.0 1.0 4 ------- null}
+ -t 0.5 -s 0 -d 1 -p tcp -e 1540 -c 0 -i 5 -a 0 -x {0.0 1.0 5 ------- null}
+ -t 0.5 -s 0 -d 1 -p tcp -e 1540 -c 0 -i 6 -a 0 -x {0.0 1.0 6 ------- null}
+ -t 0.5 -s 0 -d 1 -p tcp -e 1540 -c 0 -i 7 -a 0 -x {0.0 1.0 7 ------- null}
+ -t 0.5 -s 0 -d 1 -p tcp -e 1540 -c 0 -i 8 -a 0 -x {0.0 1.0 8 ------- null}
+ -t 0.5 -s 0 -d 1 -p tcp -e 1540 -c 0 -i 9 -a 0 -x {0.0 1.0 9 ------- null}
+ -t 0.5 -s 0 -d 1 -p tcp -e 1540 -c 0 -i 10 -a 0 -x {0.0 1.0 10 ------- null}
+ -t 0.5 -s 0 -d 1 -p tcp -e 1540 -c 0 -i 11 -a 0 -x {0.0 1.0 11 ------- null}
+ -t 0.5 -s 0 -d 1 -p tcp -e 1540 -c 0 -i 12 -a 0 -x {0.0 1.0 12 ------- null}
+ -t 0.5 -s 0 -d 1 -p tcp -e 1540 -c 0 -i 13 -a 0 -x {0.0 1.0 13 ------- null}
+ -t 0.5 -s 0 -d 1 -p tcp -e 1540 -c 0 -i 14 -a 0 -x {0.0 1.0 14 ------- null}
+ -t 0.5 -s 0 -d 1 -p tcp -e 1540 -c 0 -i 15 -a 0 -x {0.0 1.0 15 ------- null}
+ -t 0.5 -s 0 -d 1 -p tcp -e 1540 -c 0 -i 16 -a 0 -x {0.0 1.0 16 ------- null}
+ -t 0.5 -s 0 -d 1 -p tcp -e 1540 -c 0 -i 17 -a 0 -x {0.0 1.0 17 ------- null}
+ -t 0.5 -s 0 -d 1 -p tcp -e 1540 -c 0 -i 18 -a 0 -x {0.0 1.0 18 ------- null}
+ -t 0.5 -s 0 -d 1 -p tcp -e 1540 -c 0 -i 19 -a 0 -x {0.0 1.0 19 ------- null}
+ -t 0.5 -s 0 -d 1 -p tcp -e 1540 -c 0 -i 20 -a 0 -x {0.0 1.0 20 ------- null}
+ -t 0.5 -s 0 -d 1 -p tcp -e 1540 -c 0 -i 21 -a 0 -x {0.0 1.0 21 ------- null}
+ -t 0.5 -s 0 -d 1 -p tcp -e 1540 -c 0 -i 22 -a 0 -x {0.0 1.0 22 ------- null}
+ -t 0.5 -s 0 -d 1 -p tcp -e 1540 -c 0 -i 23 -a 0 -x {0.0 1.0 23 ------- null}
+ -t 0.5 -s 0 -d 1 -p tcp -e 1540 -c 0 -i 24 -a 0 -x {0.0 1.0 24 ------- null}
+ -t 0.5 -s 0 -d 1 -p tcp -e 1540 -c 0 -i 25 -a 0 -x {0.0 1.0 25 ------- null}
+ -t 0.5 -s 0 -d 1 -p tcp -e 1540 -c 0 -i 26 -a 0 -x {0.0 1.0 26 ------- null}
+ -t 0.5 -s 0 -d 1 -p tcp -e 1540 -c 0 -i 27 -a 0 -x {0.0 1.0 27 ------- null}
+ -t 0.5 -s 0 -d 1 -p tcp -e 1540 -c 0 -i 28 -a 0 -x {0.0 1.0 28 ------- null}
+ -t 0.5 -s 0 -d 1 -p tcp -e 1540 -c 0 -i 29 -a 0 -x {0.0 1.0 29 ------- null}
+ -t 0.5 -s 0 -d 1 -p tcp -e 1540 -c 0 -i 30 -a 0 -x {0.0 1.0 30 ------- null}
+ -t 0.5 -s 0 -d 1 -p tcp -e 1540 -c 0 -i 31 -a 0 -x {0.0 1.0 31 ------- null}
+ -t 0.5 -s 0 -d 1 -p tcp -e 1540 -c 0 -i 32 -a 0 -x {0.0 1.0 32 ------- null}
+ -t 0.5 -s 0 -d 1 -p tcp -e 1540 -c 0 -i 33 -a 0 -x {0.0 1.0 33 ------- null}
+ -t 0.5 -s 0 -d 1 -p tcp -e 1540 -c 0 -i 34 -a 0 -x {0.0 1.0 34 ------- null}
+ -t 0.5 -s 0 -d 1 -p tcp -e 1540 -c 0 -i 35 -a 0 -x {0.0 1.0 35 ------- null}
+ -t 0.5 -s 0 -d 1 -p tcp -e 1540 -c 0 -i 36 -a 0 -x {0.0 1.0 36 ------- null}
+ -t 0.5 -s 0 -d 1 -p tcp -e 1540 -c 0 -i 37 -a 0 -x {0.0 1.0 37 ------- null}
+ -t 0.5 -s 0 -d 1 -p tcp -e 1540 -c 0 -i 38 -a 0 -x {0.0 1.0 38 ------- null}
+ -t 0.5 -s 0 -d 1 -p tcp -e 1540 -c 0 -i 39 -a 0 -x {0.0 1.0 39 ------- null}
+ -t 0.5 -s 0 -d 1 -p tcp -e 1540 -c 0 -i 40 -a 0 -x {0.0 1.0 40 ------- null}
+ -t 0.5 -s 0 -d 1 -p tcp -e 1540 -c 0 -i 41 -a 0 -x {0.0 1.0 41 ------- null}
+ -t 0.5 -s 0 -d 1 -p tcp -e 1540 -c 0 -i 42 -a 0 -x {0.0 1.0 42 ------- null}
+ -t 0.5 -s 0 -d 1 -p tcp -e 1540 -c 0 -i 43 -a 0 -x {0.0 1.0 43 ------- null}
+ -t 0.5 -s 0 -d 1 -p tcp -e 1540 -c 0 -i 44 -a 0 -x {0.0 1.0 44 ------- null}
+ -t 0.5 -s 0 -d 1 -p tcp -e 1540 -c 0 -i 45 -a 0 -x {0.0 1.0 45 ------- null}
+ -t 0.5 -s 0 -d 1 -p tcp -e 1540 -c 0 -i 46 -a 0 -x {0.0 1.0 46 ------- null}
+ -t 0.5 -s 0 -d 1 -p tcp -e 1540 -c 0 -i 47 -a 0 -x {0.0 1.0 47 ------- null}
+ -t 0.5 -s 0 -d 1 -p tcp -e 1540 -c 0 -i 48 -a 0 -x {0.0 1.0 48 ------- null}
+ -t 0.5 -s 0 -d 1 -p tcp -e 1540 -c 0 -i 49 -a 0 -x {0.0 1.0 49 ------- null}
+ -t 0.5 -s 0 -d 1 -p tcp -e 1540 -c 0 -i 50 -a 0 -x {0.0 1.0 50 ------- null}
d -t 0.5 -s 0 -d 1 -p tcp -e 1540 -c 0 -i 50 -a 0 -x {0.0 1.0 50 ------- null}
+ -t 0.5 -s 0 -d 1 -p tcp -e 1540 -c 0 -i 51 -a 0 -x {0.0 1.0 51 ------- null}
d -t 0.5 -s 0 -d 1 -p tcp -e 1540 -c 0 -i 51 -a 0 -x {0.0 1.0 51 ------- null}
+ -t 0.5 -s 0 -d 1 -p tcp -e 1540 -c 0 -i 52 -a 0 -x {0.0 1.0 52 ------- null}
d -t 0.5 -s 0 -d 1 -p tcp -e 1540 -c 0 -i 52 -a 0 -x {0.0 1.0 52 ------- null}
+ -t 0.5 -s 0 -d 1 -p tcp -e 1540 -c 0 -i 53 -a 0 -x {0.0 1.0 53 ------- null}
d -t 0.5 -s 0 -d 1 -p tcp -e 1540 -c 0 -i 53 -a 0 -x {0.0 1.0 53 ------- null}
+ -t 0.5 -s 0 -d 1 -p tcp -e 1540 -c 0 -i 54 -a 0 -x {0.0 1.0 54 ------- null}
d -t 0.5 -s 0 -d 1 -p tcp -e 1540 -c 0 -i 54 -a 0 -x {0.0 1.0 54 ------- null}
+ -t 0.5 -s 0 -d 1 -p tcp -e 1540 -c 0 -i 55 -a 0 -x {0.0 1.0 55 ------- null}
d -t 0.5 -s 0 -d 1 -p tcp -e 1540 -c 0 -i 55 -a 0 -x {0.0 1.0 55 ------- null}
+ -t 0.5 -s 0 -d 1 -p tcp -e 1540 -c 0 -i 56 -a 0 -x {0.0 1.0 56 ------- null}
d -t 0.5 -s 0 -d 1 -p tcp -e 1540 -c 0 -i 56 -a 0 -x {0.0 1.0 56 ------- null}
+ -t 0.5 -s 0 -d 1 -p tcp -e 1540 -c 0 -i 57 -a 0 -x {0.0 1.0 57 ------- null}
d -t 0.5 -s 0 -d 1 -p tcp -e 1540 -c 0 -i 57 -a 0 -x {0.0 1.0 57 ------- null}
+ -t 0.5 -s 0 -d 1 -p tcp -e 1540 -c 0 -i 58 -a 0 -x {0.0 1.0 58 ------- null}
d -t 0.5 -s 0 -d 1 -p tcp -e 1540 -c 0 -i 58 -a 0 -x {0.0 1.0 58 ------- null}
+ -t 0.5 -s 0 -d 1 -p tcp -e 1540 -c 0 -i 59 -a 0 -x {0.0 1.0 59 ------- null}
d -t 0.5 -s 0 -d 1 -p tcp -e 1540 -c 0 -i 59 -a 0 -x {0.0 1.0 59 ------- null}
+ -t 0.5 -s 0 -d 1 -p tcp -e 1540 -c 0 -i 60 -a 0 -x {0.0 1.0 60 ------- null}
d -t 0.5 -s 0 -d 1 -p tcp -e 1540 -c 0 -i 60 -a 0 -x {0.0 1.0 60 ------- null}
+ -t 0.5 -s 0 -d 1 -p tcp -e 1540 -c 0 -i 61 -a 0 -x {0.0 1.0 61 ------- null}
d -t 0.5 -s 0 -d 1 -p tcp -e 1540 -c 0 -i 61 -a 0 -x {0.0 1.0 61 ------- null}
+ -t 0.5 -s 0 -d 1 -p tcp -e 1540 -c 0 -i 62 -a 0 -x {0.0 1.0 62 ------- null}
d -t 0.5 -s 0 -d 1 -p tcp -e 1540 -c 0 -i 62 -a 0 -x {0.0 1.0 62 ------- null}
+ -t 0.5 -s 0 -d 1 -p tcp -e 1540 -c 0 -i 63 -a 0 -x {0.0 1.0 63 ------- null}
d -t 0.5 -s 0 -d 1 -p tcp -e 1540 -c 0 -i 63 -a 0 -x {0.0 1.0 63 ------- null}
+ -t 0.5 -s 0 -d 1 -p tcp -e 1540 -c 0 -i 64 -a 0 -x {0.0 1.0 64 ------- null}
d -t 0.5 -s 0 -d 1 -p tcp -e 1540 -c 0 -i 64 -a 0 -x {0.0 1.0 64 ------- null}
+ -t 0.5 -s 0 -d 1 -p tcp -e 1540 -c 0 -i 65 -a 0 -x {0.0 1.0 65 ------- null}
d -t 0.5 -s 0 -d 1 -p tcp -e 1540 -c 0 -i 65 -a 0 -x {0.0 1.0 65 ------- null}
+ -t 0.5 -s 0 -d 1 -p tcp -e 1540 -c 0 -i 66 -a 0 -x {0.0 1.0 66 ------- null}
d -t 0.5 -s 0 -d 1 -p tcp -e 1540 -c 0 -i 66 -a 0 -x {0.0 1.0 66 ------- null}
+ -t 0.5 -s 0 -d 1 -p tcp -e 1540 -c 0 -i 67 -a 0 -x {0.0 1.0 67 ------- null}
d -t 0.5 -s 0 -d 1 -p tcp -e 1540 -c 0 -i 67 -a 0 -x {0.0 1.0 67 ------- null}
+ -t 0.5 -s 0 -d 1 -p tcp -e 1540 -c 0 -i 68 -a 0 -x {0.0 1.0 68 ------- null}
d -t 0.5 -s 0 -d 1 -p tcp -e 1540 -c 0 -i 68 -a 0 -x {0.0 1.0 68 ------- null}
+ -t 0.5 -s 0 -d 1 -p tcp -e 1540 -c 0 -i 69 -a 0 -x {0.0 1.0 69 ------- null}
d -t 0.5 -s 0 -d 1 -p tcp -e 1540 -c 0 -i 69 -a 0 -x {0.0 1.0 69 ------- null}
+ -t 0.5 -s 0 -d 1 -p tcp -e 1540 -c 0 -i 70 -a 0 -x {0.0 1.0 70 ------- null}
d -t 0.5 -s 0 -d 1 -p tcp -e 1540 -c 0 -i 70 -a 0 -x {0.0 1.0 70 ------- null}
+ -t 0.5 -s 0 -d 1 -p tcp -e 1540 -c 0 -i 71 -a 0 -x {0.0 1.0 71 ------- null}
d -t 0.5 -s 0 -d 1 -p tcp -e 1540 -c 0 -i 71 -a 0 -x {0.0 1.0 71 ------- null}
+ -t 0.5 -s 0 -d 1 -p tcp -e 1540 -c 0 -i 72 -a 0 -x {0.0 1.0 72 ------- null}
d -t 0.5 -s 0 -d 1 -p tcp -e 1540 -c 0 -i 72 -a 0 -x {0.0 1.0 72 ------- null}
+ -t 0.5 -s 0 -d 1 -p tcp -e 1540 -c 0 -i 73 -a 0 -x {0.0 1.0 73 ------- null}
d -t 0.5 -s 0 -d 1 -p tcp -e 1540 -c 0 -i 73 -a 0 -x {0.0 1.0 73 ------- null}
+ -t 0.5 -s 0 -d 1 -p tcp -e 1540 -c 0 -i 74 -a 0 -x {0.0 1.0 74 ------- null}
d -t 0.5 -s 0 -d 1 -p tcp -e 1540 -c 0 -i 74 -a 0 -x {0.0 1.0 74 ------- null}
+ -t 0.5 -s 0 -d 1 -p tcp -e 1540 -c 0 -i 75 -a 0 -x {0.0 1.0 75 ------- null}
d -t 0.5 -s 0 -d 1 -p tcp -e 1540 -c 0 -i 75 -a 0 -x {0.0 1.0 75 ------- null}
+ -t 0.5 -s 0 -d 1 -p tcp -e 1540 -c 0 -i 76 -a 0 -x {0.0 1.0 76 ------- null}
d -t 0.5 -s 0 -d 1 -p tcp -e 1540 -c 0 -i 76 -a 0 -x {0.0 1.0 76 ------- null}
+ -t 0.5 -s 0 -d 1 -p tcp -e 1540 -c 0 -i 77 -a 0 -x {0.0 1.0 77 ------- null}
d -t 0.5 -s 0 -d 1 -p tcp -e 1540 -c 0 -i 77 -a 0 -x {0.0 1.0 77 ------- null}
+ -t 0.5 -s 0 -d 1 -p tcp -e 1540 -c 0 -i 78 -a 0 -x {0.0 1.0 78 ------- null}
d -t 0.5 -s 0 -d 1 -p tcp -e 1540 -c 0 -i 78 -a 0 -x {0.0 1.0 78 ------- null}
+ -t 0.5 -s 0 -d 1 -p tcp -e 1540 -c 0 -i 79 -a 0 -x {0.0 1.0 79 ------- null}
d -t 0.5 -s 0 -d 1 -p tcp -e 1540 -c 0 -i 79 -a 0 -x {0.0 1.0 79 ------- null}
+ -t 0.5 -s 0 -d 1 -p tcp -e 1540 -c 0 -i 80 -a 0 -x {0.0 1.0 80 ------- null}
d -t 0.5 -s 0 -d 1 -p tcp -e 1540 -c 0 -i 80 -a 0 -x {0.0 1.0 80 ------- null}
+ -t 0.5 -s 0 -d 1 -p tcp -e 1540 -c 0 -i 81 -a 0 -x {0.0 1.0 81 ------- null}
d -t 0.5 -s 0 -d 1 -p tcp -e 1540 -c 0 -i 81 -a 0 -x {0.0 1.0 81 ------- null}
- -t 0.5012 -s 0 -d 1 -p tcp -e 1540 -c 0 -i 1 -a 0 -x {0.0 1.0 1 ------- null}
h -t 0.5012 -s 0 -d 1 -p tcp -e 1540 -c 0 -i 1 -a 0 -x {0.0 1.0 -1 ------- null}
- -t 0.502432 -s 0 -d 1 -p tcp -e 1540 -c 0 -i 2 -a 0 -x {0.0 1.0 2 ------- null}
h -t 0.502432 -s 0 -d 1 -p tcp -e 1540 -c 0 -i 2 -a 0 -x {0.0 1.0 -1 ------- null}
- -t 0.503664 -s 0 -d 1 -p tcp -e 1540 -c 0 -i 3 -a 0 -x {0.0 1.0 3 ------- null}
h -t 0.503664 -s 0 -d 1 -p tcp -e 1540 -c 0 -i 3 -a 0 -x {0.0 1.0 -1 ------- null}
- -t 0.504896 -s 0 -d 1 -p tcp -e 1540 -c 0 -i 4 -a 0 -x {0.0 1.0 4 ------- null}
h -t 0.504896 -s 0 -d 1 -p tcp -e 1540 -c 0 -i 4 -a 0 -x {0.0 1.0 -1 ------- null}
- -t 0.506128 -s 0 -d 1 -p tcp -e 1540 -c 0 -i 5 -a 0 -x {0.0 1.0 5 ------- null}
h -t 0.506128 -s 0 -d 1 -p tcp -e 1540 -c 0 -i 5 -a 0 -x {0.0 1.0 -1 ------- null}
r -t 0.5062 -s 0 -d 1 -p tcp -e 1500 -c 0 -i 0 -a 0 -x {0.0 1.0 0 ------- null}
+ -t 0.5062 -s 1 -d 0 -p ack -e 40 -c 0 -i 82 -a 0 -x {1.0 0.0 0 ------- null}
- -t 0.5062 -s 1 -d 0 -p ack -e 40 -c 0 -i 82 -a 0 -x {1.0 0.0 0 ------- null}
h -t 0.5062 -s 1 -d 0 -p ack -e 40 -c 0 -i 82 -a 0 -x {1.0 0.0 -1 ------- null}
- -t 0.50736 -s 0 -d 1 -p tcp -e 1540 -c 0 -i 6 -a 0 -x {0.0 1.0 6 ------- null}
h -t 0.50736 -s 0 -d 1 -p tcp -e 1540 -c 0 -i 6 -a 0 -x {0.0 1.0 -1 ------- null}
r -t 0.507432 -s 0 -d 1 -p tcp -e 1540 -c 0 -i 1 -a 0 -x {0.0 1.0 1 ------- null}
+ -t 0.507432 -s 1 -d 0 -p ack -e 40 -c 0 -i 83 -a 0 -x {1.0 0.0 1 ------- null}
- -t 0.507432 -s 1 -d 0 -p ack -e 40 -c 0 -i 83 -a 0 -x {1.0 0.0 1 ------- null}
h -t 0.507432 -s 1 -d 0 -p ack -e 40 -c 0 -i 83 -a 0 -x {1.0 0.0 -1 ------- null}
- -t 0.508592 -s 0 -d 1 -p tcp -e 1540 -c 0 -i 7 -a 0 -x {0.0 1.0 7 ------- null}
h -t 0.508592 -s 0 -d 1 -p tcp -e 1540 -c 0 -i 7 -a 0 -x {0.0 1.0 -1 ------- null}
r -t 0.508664 -s 0 -d 1 -p tcp -e 1540 -c 0 -i 2 -a 0 -x {0.0 1.0 2 ------- null}
+ -t 0.508664 -s 1 -d 0 -p ack -e 40 -c 0 -i 84 -a 0 -x {1.0 0.0 2 ------- null}
- -t 0.508664 -s 1 -d 0 -p ack -e 40 -c 0 -i 84 -a 0 -x {1.0 0.0 2 ------- null}
h -t 0.508664 -s 1 -d 0 -p ack -e 40 -c 0 -i 84 -a 0 -x {1.0 0.0 -1 ------- null}
- -t 0.509824 -s 0 -d 1 -p tcp -e 1540 -c 0 -i 8 -a 0 -x {0.0 1.0 8 ------- null}
h -t 0.509824 -s 0 -d 1 -p tcp -e 1540 -c 0 -i 8 -a 0 -x {0.0 1.0 -1 ------- null}
r -t 0.509896 -s 0 -d 1 -p tcp -e 1540 -c 0 -i 3 -a 0 -x {0.0 1.0 3 ------- null}
+ -t 0.509896 -s 1 -d 0 -p ack -e 40 -c 0 -i 85 -a 0 -x {1.0 0.0 3 ------- null}
- -t 0.509896 -s 1 -d 0 -p ack -e 40 -c 0 -i 85 -a 0 -x {1.0 0.0 3 ------- null}
h -t 0.509896 -s 1 -d 0 -p ack -e 40 -c 0 -i 85 -a 0 -x {1.0 0.0 -1 ------- null}
- -t 0.511056 -s 0 -d 1 -p tcp -e 1540 -c 0 -i 9 -a 0 -x {0.0 1.0 9 ------- null}
h -t 0.511056 -s 0 -d 1 -p tcp -e 1540 -c 0 -i 9 -a 0 -x {0.0 1.0 -1 ------- null}
r -t 0.511128 -s 0 -d 1 -p tcp -e 1540 -c 0 -i 4 -a 0 -x {0.0 1.0 4 ------- null}
+ -t 0.511128 -s 1 -d 0 -p ack -e 40 -c 0 -i 86 -a 0 -x {1.0 0.0 4 ------- null}
- -t 0.511128 -s 1 -d 0 -p ack -e 40 -c 0 -i 86 -a 0 -x {1.0 0.0 4 ------- null}
h -t 0.511128 -s 1 -d 0 -p ack -e 40 -c 0 -i 86 -a 0 -x {1.0 0.0 -1 ------- null}
r -t 0.511232 -s 1 -d 0 -p ack -e 40 -c 0 -i 82 -a 0 -x {1.0 0.0 0 ------- null}
+ -t 0.511232 -s 0 -d 1 -p tcp -e 1540 -c 0 -i 87 -a 0 -x {0.0 1.0 82 ------- null}
- -t 0.512288 -s 0 -d 1 -p tcp -e 1540 -c 0 -i 10 -a 0 -x {0.0 1.0 10 ------- null}
h -t 0.512288 -s 0 -d 1 -p tcp -e 1540 -c 0 -i 10 -a 0 -x {0.0 1.0 -1 ------- null}
r -t 0.51236 -s 0 -d 1 -p tcp -e 1540 -c 0 -i 5 -a 0 -x {0.0 1.0 5 ------- null}
+ -t 0.51236 -s 1 -d 0 -p ack -e 40 -c 0 -i 88 -a 0 -x {1.0 0.0 5 ------- null}
- -t 0.51236 -s 1 -d 0 -p ack -e 40 -c 0 -i 88 -a 0 -x {1.0 0.0 5 ------- null}
h -t 0.51236 -s 1 -d 0 -p ack -e 40 -c 0 -i 88 -a 0 -x {1.0 0.0 -1 ------- null}
r -t 0.512464 -s 1 -d 0 -p ack -e 40 -c 0 -i 83 -a 0 -x {1.0 0.0 1 ------- null}
+ -t 0.512464 -s 0 -d 1 -p tcp -e 1540 -c 0 -i 89 -a 0 -x {0.0 1.0 83 ------- null}
- -t 0.51352 -s 0 -d 1 -p tcp -e 1540 -c 0 -i 11 -a 0 -x {0.0 1.0 11 ------- null}
h -t 0.51352 -s 0 -d 1 -p tcp -e 1540 -c 0 -i 11 -a 0 -x {0.0 1.0 -1 ------- null}
r -t 0.513592 -s 0 -d 1 -p tcp -e 1540 -c 0 -i 6 -a 0 -x {0.0 1.0 6 ------- null}
+ -t 0.513592 -s 1 -d 0 -p ack -e 40 -c 0 -i 90 -a 0 -x {1.0 0.0 6 ------- null}
- -t 0.513592 -s 1 -d 0 -p ack -e 40 -c 0 -i 90 -a 0 -x {1.0 0.0 6 ------- null}
h -t 0.513592 -s 1 -d 0 -p ack -e 40 -c 0 -i 90 -a 0 -x {1.0 0.0 -1 ------- null}
r -t 0.513696 -s 1 -d 0 -p ack -e 40 -c 0 -i 84 -a 0 -x {1.0 0.0 2 ------- null}
+ -t 0.513696 -s 0 -d 1 -p tcp -e 1540 -c 0 -i 91 -a 0 -x {0.0 1.0 84 ------- null}
- -t 0.514752 -s 0 -d 1 -p tcp -e 1540 -c 0 -i 12 -a 0 -x {0.0 1.0 12 ------- null}
h -t 0.514752 -s 0 -d 1 -p tcp -e 1540 -c 0 -i 12 -a 0 -x {0.0 1.0 -1 ------- null}
r -t 0.514824 -s 0 -d 1 -p tcp -e 1540 -c 0 -i 7 -a 0 -x {0.0 1.0 7 ------- null}
+ -t 0.514824 -s 1 -d 0 -p ack -e 40 -c 0 -i 92 -a 0 -x {1.0 0.0 7 ------- null}
- -t 0.514824 -s 1 -d 0 -p ack -e 40 -c 0 -i 92 -a 0 -x {1.0 0.0 7 ------- null}
h -t 0.514824 -s 1 -d 0 -p ack -e 40 -c 0 -i 92 -a 0 -x {1.0 0.0 -1 ------- null}
r -t 0.514928 -s 1 -d 0 -p ack -e 40 -c 0 -i 85 -a 0 -x {1.0 0.0 3 ------- null}
+ -t 0.514928 -s 0 -d 1 -p tcp -e 1540 -c 0 -i 93 -a 0 -x {0.0 1.0 85 ------- null}
- -t 0.515984 -s 0 -d 1 -p tcp -e 1540 -c 0 -i 13 -a 0 -x {0.0 1.0 13 ------- null}
h -t 0.515984 -s 0 -d 1 -p tcp -e 1540 -c 0 -i 13 -a 0 -x {0.0 1.0 -1 ------- null}
r -t 0.516056 -s 0 -d 1 -p tcp -e 1540 -c 0 -i 8 -a 0 -x {0.0 1.0 8 ------- null}
+ -t 0.516056 -s 1 -d 0 -p ack -e 40 -c 0 -i 94 -a 0 -x {1.0 0.0 8 ------- null}
- -t 0.516056 -s 1 -d 0 -p ack -e 40 -c 0 -i 94 -a 0 -x {1.0 0.0 8 ------- null}
h -t 0.516056 -s 1 -d 0 -p ack -e 40 -c 0 -i 94 -a 0 -x {1.0 0.0 -1 ------- null}
r -t 0.51616 -s 1 -d 0 -p ack -e 40 -c 0 -i 86 -a 0 -x {1.0 0.0 4 ------- null}
+ -t 0.51616 -s 0 -d 1 -p tcp -e 1540 -c 0 -i 95 -a 0 -x {0.0 1.0 86 ------- null}
- -t 0.517216 -s 0 -d 1 -p tcp -e 1540 -c 0 -i 14 -a 0 -x {0.0 1.0 14 ------- null}
h -t 0.517216 -s 0 -d 1 -p tcp -e 1540 -c 0 -i 14 -a 0 -x {0.0 1.0 -1 ------- null}
r -t 0.517288 -s 0 -d 1 -p tcp -e 1540 -c 0 -i 9 -a 0 -x {0.0 1.0 9 ------- null}
+ -t 0.517288 -s 1 -d 0 -p ack -e 40 -c 0 -i 96 -a 0 -x {1.0 0.0 9 ------- null}
- -t 0.517288 -s 1 -d 0 -p ack -e 40 -c 0 -i 96 -a 0 -x {1.0 0.0 9 ------- null}
h -t 0.517288 -s 1 -d 0 -p ack -e 40 -c 0 -i 96 -a 0 -x {1.0 0.0 -1 ------- null}
r -t 0.517392 -s 1 -d 0 -p ack -e 40 -c 0 -i 88 -a 0 -x {1.0 0.0 5 ------- null}
+ -t 0.517392 -s 0 -d 1 -p tcp -e 1540 -c 0 -i 97 -a 0 -x {0.0 1.0 87 ------- null}
- -t 0.518448 -s 0 -d 1 -p tcp -e 1540 -c 0 -i 15 -a 0 -x {0.0 1.0 15 ------- null}
h -t 0.518448 -s 0 -d 1 -p tcp -e 1540 -c 0 -i 15 -a 0 -x {0.0 1.0 -1 ------- null}
r -t 0.51852 -s 0 -d 1 -p tcp -e 1540 -c 0 -i 10 -a 0 -x {0.0 1.0 10 ------- null}
+ -t 0.51852 -s 1 -d 0 -p ack -e 40 -c 0 -i 98 -a 0 -x {1.0 0.0 10 ------- null}
- -t 0.51852 -s 1 -d 0 -p ack -e 40 -c 0 -i 98 -a 0 -x {1.0 0.0 10 ------- null}
h -t 0.51852 -s 1 -d 0 -p ack -e 40 -c 0 -i 98 -a 0 -x {1.0 0.0 -1 ------- null}
r -t 0.518624 -s 1 -d 0 -p ack -e 40 -c 0 -i 90 -a 0 -x {1.0 0.0 6 ------- null}
+ -t 0.518624 -s 0 -d 1 -p tcp -e 1540 -c 0 -i 99 -a 0 -x {0.0 1.0 88 ------- null}
- -t 0.51968 -s 0 -d 1 -p tcp -e 1540 -c 0 -i 16 -a 0 -x {0.0 1.0 16 ------- null}
h -t 0.51968 -s 0 -d 1 -p tcp -e 1540 -c 0 -i 16 -a 0 -x {0.0 1.0 -1 ------- null}
r -t 0.519752 -s 0 -d 1 -p tcp -e 1540 -c 0 -i 11 -a 0 -x {0.0 1.0 11 ------- null}
+ -t 0.519752 -s 1 -d 0 -p ack -e 40 -c 0 -i 100 -a 0 -x {1.0 0.0 11 ------- null}
- -t 0.519752 -s 1 -d 0 -p ack -e 40 -c 0 -i 100 -a 0 -x {1.0 0.0 11 ------- null}
h -t 0.519752 -s 1 -d 0 -p ack -e 40 -c 0 -i 100 -a 0 -x {1.0 0.0 -1 ------- null}
r -t 0.519856 -s 1 -d 0 -p ack -e 40 -c 0 -i 92 -a 0 -x {1.0 0.0 7 ------- null}
+ -t 0.519856 -s 0 -d 1 -p tcp -e 1540 -c 0 -i 101 -a 0 -x {0.0 1.0 89 ------- null}
- -t 0.520912 -s 0 -d 1 -p tcp -e 1540 -c 0 -i 17 -a 0 -x {0.0 1.0 17 ------- null}
h -t 0.520912 -s 0 -d 1 -p tcp -e 1540 -c 0 -i 17 -a 0 -x {0.0 1.0 -1 ------- null}
r -t 0.520984 -s 0 -d 1 -p tcp -e 1540 -c 0 -i 12 -a 0 -x {0.0 1.0 12 ------- null}
+ -t 0.520984 -s 1 -d 0 -p ack -e 40 -c 0 -i 102 -a 0 -x {1.0 0.0 12 ------- null}
- -t 0.520984 -s 1 -d 0 -p ack -e 40 -c 0 -i 102 -a 0 -x {1.0 0.0 12 ------- null}
h -t 0.520984 -s 1 -d 0 -p ack -e 40 -c 0 -i 102 -a 0 -x {1.0 0.0 -1 ------- null}
r -t 0.521088 -s 1 -d 0 -p ack -e 40 -c 0 -i 94 -a 0 -x {1.0 0.0 8 ------- null}
+ -t 0.521088 -s 0 -d 1 -p tcp -e 1540 -c 0 -i 103 -a 0 -x {0.0 1.0 90 ------- null}
- -t 0.522144 -s 0 -d 1 -p tcp -e 1540 -c 0 -i 18 -a 0 -x {0.0 1.0 18 ------- null}
h -t 0.522144 -s 0 -d 1 -p tcp -e 1540 -c 0 -i 18 -a 0 -x {0.0 1.0 -1 ------- null}
r -t 0.522216 -s 0 -d 1 -p tcp -e 1540 -c 0 -i 13 -a 0 -x {0.0 1.0 13 ------- null}
+ -t 0.522216 -s 1 -d 0 -p ack -e 40 -c 0 -i 104 -a 0 -x {1.0 0.0 13 ------- null}
- -t 0.522216 -s 1 -d 0 -p ack -e 40 -c 0 -i 104 -a 0 -x {1.0 0.0 13 ------- null}
h -t 0.522216 -s 1 -d 0 -p ack -e 40 -c 0 -i 104 -a 0 -x {1.0 0.0 -1 ------- null}
r -t 0.52232 -s 1 -d 0 -p ack -e 40 -c 0 -i 96 -a 0 -x {1.0 0.0 9 ------- null}
+ -t 0.52232 -s 0 -d 1 -p tcp -e 1540 -c 0 -i 105 -a 0 -x {0.0 1.0 91 ------- null}
- -t 0.523376 -s 0 -d 1 -p tcp -e 1540 -c 0 -i 19 -a 0 -x {0.0 1.0 19 ------- null}
h -t 0.523376 -s 0 -d 1 -p tcp -e 1540 -c 0 -i 19 -a 0 -x {0.0 1.0 -1 ------- null}
r -t 0.523448 -s 0 -d 1 -p tcp -e 1540 -c 0 -i 14 -a 0 -x {0.0 1.0 14 ------- null}
+ -t 0.523448 -s 1 -d 0 -p ack -e 40 -c 0 -i 106 -a 0 -x {1.0 0.0 14 ------- null}
- -t 0.523448 -s 1 -d 0 -p ack -e 40 -c 0 -i 106 -a 0 -x {1.0 0.0 14 ------- null}
h -t 0.523448 -s 1 -d 0 -p ack -e 40 -c 0 -i 106 -a 0 -x {1.0 0.0 -1 ------- null}
r -t 0.523552 -s 1 -d 0 -p ack -e 40 -c 0 -i 98 -a 0 -x {1.0 0.0 10 ------- null}
+ -t 0.523552 -s 0 -d 1 -p tcp -e 1540 -c 0 -i 107 -a 0 -x {0.0 1.0 92 ------- null}
- -t 0.524608 -s 0 -d 1 -p tcp -e 1540 -c 0 -i 20 -a 0 -x {0.0 1.0 20 ------- null}
h -t 0.524608 -s 0 -d 1 -p tcp -e 1540 -c 0 -i 20 -a 0 -x {0.0 1.0 -1 ------- null}
r -t 0.52468 -s 0 -d 1 -p tcp -e 1540 -c 0 -i 15 -a 0 -x {0.0 1.0 15 ------- null}
+ -t 0.52468 -s 1 -d 0 -p ack -e 40 -c 0 -i 108 -a 0 -x {1.0 0.0 15 ------- null}
- -t 0.52468 -s 1 -d 0 -p ack -e 40 -c 0 -i 108 -a 0 -x {1.0 0.0 15 ------- null}
h -t 0.52468 -s 1 -d 0 -p ack -e 40 -c 0 -i 108 -a 0 -x {1.0 0.0 -1 ------- null}
r -t 0.524784 -s 1 -d 0 -p ack -e 40 -c 0 -i 100 -a 0 -x {1.0 0.0 11 ------- null}
+ -t 0.524784 -s 0 -d 1 -p tcp -e 1540 -c 0 -i 109 -a 0 -x {0.0 1.0 93 ------- null}
- -t 0.52584 -s 0 -d 1 -p tcp -e 1540 -c 0 -i 21 -a 0 -x {0.0 1.0 21 ------- null}
h -t 0.52584 -s 0 -d 1 -p tcp -e 1540 -c 0 -i 21 -a 0 -x {0.0 1.0 -1 ------- null}
r -t 0.525912 -s 0 -d 1 -p tcp -e 1540 -c 0 -i 16 -a 0 -x {0.0 1.0 16 ------- null}
+ -t 0.525912 -s 1 -d 0 -p ack -e 40 -c 0 -i 110 -a 0 -x {1.0 0.0 16 ------- null}
- -t 0.525912 -s 1 -d 0 -p ack -e 40 -c 0 -i 110 -a 0 -x {1.0 0.0 16 ------- null}
h -t 0.525912 -s 1 -d 0 -p ack -e 40 -c 0 -i 110 -a 0 -x {1.0 0.0 -1 ------- null}
r -t 0.526016 -s 1 -d 0 -p ack -e 40 -c 0 -i 102 -a 0 -x {1.0 0.0 12 ------- null}
+ -t 0.526016 -s 0 -d 1 -p tcp -e 1540 -c 0 -i 111 -a 0 -x {0.0 1.0 94 ------- null}
- -t 0.527072 -s 0 -d 1 -p tcp -e 1540 -c 0 -i 22 -a 0 -x {0.0 1.0 22 ------- null}
h -t 0.527072 -s 0 -d 1 -p tcp -e 1540 -c 0 -i 22 -a 0 -x {0.0 1.0 -1 ------- null}
r -t 0.527144 -s 0 -d 1 -p tcp -e 1540 -c 0 -i 17 -a 0 -x {0.0 1.0 17 ------- null}
+ -t 0.527144 -s 1 -d 0 -p ack -e 40 -c 0 -i 112 -a 0 -x {1.0 0.0 17 ------- null}
- -t 0.527144 -s 1 -d 0 -p ack -e 40 -c 0 -i 112 -a 0 -x {1.0 0.0 17 ------- null}
h -t 0.527144 -s 1 -d 0 -p ack -e 40 -c 0 -i 112 -a 0 -x {1.0 0.0 -1 ------- null}
r -t 0.527248 -s 1 -d 0 -p ack -e 40 -c 0 -i 104 -a 0 -x {1.0 0.0 13 ------- null}
+ -t 0.527248 -s 0 -d 1 -p tcp -e 1540 -c 0 -i 113 -a 0 -x {0.0 1.0 95 ------- null}
- -t 0.528304 -s 0 -d 1 -p tcp -e 1540 -c 0 -i 23 -a 0 -x {0.0 1.0 23 ------- null}
h -t 0.528304 -s 0 -d 1 -p tcp -e 1540 -c 0 -i 23 -a 0 -x {0.0 1.0 -1 ------- null}
r -t 0.528376 -s 0 -d 1 -p tcp -e 1540 -c 0 -i 18 -a 0 -x {0.0 1.0 18 ------- null}
+ -t 0.528376 -s 1 -d 0 -p ack -e 40 -c 0 -i 114 -a 0 -x {1.0 0.0 18 ------- null}
- -t 0.528376 -s 1 -d 0 -p ack -e 40 -c 0 -i 114 -a 0 -x {1.0 0.0 18 ------- null}
h -t 0.528376 -s 1 -d 0 -p ack -e 40 -c 0 -i 114 -a 0 -x {1.0 0.0 -1 ------- null}
r -t 0.52848 -s 1 -d 0 -p ack -e 40 -c 0 -i 106 -a 0 -x {1.0 0.0 14 ------- null}
+ -t 0.52848 -s 0 -d 1 -p tcp -e 1540 -c 0 -i 115 -a 0 -x {0.0 1.0 96 ------- null}
- -t 0.529536 -s 0 -d 1 -p tcp -e 1540 -c 0 -i 24 -a 0 -x {0.0 1.0 24 ------- null}
h -t 0.529536 -s 0 -d 1 -p tcp -e 1540 -c 0 -i 24 -a 0 -x {0.0 1.0 -1 ------- null}
r -t 0.529608 -s 0 -d 1 -p tcp -e 1540 -c 0 -i 19 -a 0 -x {0.0 1.0 19 ------- null}
+ -t 0.529608 -s 1 -d 0 -p ack -e 40 -c 0 -i 116 -a 0 -x {1.0 0.0 19 ------- null}
- -t 0.529608 -s 1 -d 0 -p ack -e 40 -c 0 -i 116 -a 0 -x {1.0 0.0 19 ------- null}
h -t 0.529608 -s 1 -d 0 -p ack -e 40 -c 0 -i 116 -a 0 -x {1.0 0.0 -1 ------- null}
r -t 0.529712 -s 1 -d 0 -p ack -e 40 -c 0 -i 108 -a 0 -x {1.0 0.0 15 ------- null}
+ -t 0.529712 -s 0 -d 1 -p tcp -e 1540 -c 0 -i 117 -a 0 -x {0.0 1.0 97 ------- null}
- -t 0.530768 -s 0 -d 1 -p tcp -e 1540 -c 0 -i 25 -a 0 -x {0.0 1.0 25 ------- null}
h -t 0.530768 -s 0 -d 1 -p tcp -e 1540 -c 0 -i 25 -a 0 -x {0.0 1.0 -1 ------- null}
r -t 0.53084 -s 0 -d 1 -p tcp -e 1540 -c 0 -i 20 -a 0 -x {0.0 1.0 20 ------- null}
+ -t 0.53084 -s 1 -d 0 -p ack -e 40 -c 0 -i 118 -a 0 -x {1.0 0.0 20 ------- null}
- -t 0.53084 -s 1 -d 0 -p ack -e 40 -c 0 -i 118 -a 0 -x {1.0 0.0 20 ------- null}
h -t 0.53084 -s 1 -d 0 -p ack -e 40 -c 0 -i 118 -a 0 -x {1.0 0.0 -1 ------- null}
r -t 0.530944 -s 1 -d 0 -p ack -e 40 -c 0 -i 110 -a 0 -x {1.0 0.0 16 ------- null}
+ -t 0.530944 -s 0 -d 1 -p tcp -e 1540 -c 0 -i 119 -a 0 -x {0.0 1.0 98 ------- null}
- -t 0.532 -s 0 -d 1 -p tcp -e 1540 -c 0 -i 26 -a 0 -x {0.0 1.0 26 ------- null}
h -t 0.532 -s 0 -d 1 -p tcp -e 1540 -c 0 -i 26 -a 0 -x {0.0 1.0 -1 ------- null}
r -t 0.532072 -s 0 -d 1 -p tcp -e 1540 -c 0 -i 21 -a 0 -x {0.0 1.0 21 ------- null}
+ -t 0.532072 -s 1 -d 0 -p ack -e 40 -c 0 -i 120 -a 0 -x {1.0 0.0 21 ------- null}
- -t 0.532072 -s 1 -d 0 -p ack -e 40 -c 0 -i 120 -a 0 -x {1.0 0.0 21 ------- null}
h -t 0.532072 -s 1 -d 0 -p ack -e 40 -c 0 -i 120 -a 0 -x {1.0 0.0 -1 ------- null}
r -t 0.532176 -s 1 -d 0 -p ack -e 40 -c 0 -i 112 -a 0 -x {1.0 0.0 17 ------- null}
+ -t 0.532176 -s 0 -d 1 -p tcp -e 1540 -c 0 -i 121 -a 0 -x {0.0 1.0 99 ------- null}
- -t 0.533232 -s 0 -d 1 -p tcp -e 1540 -c 0 -i 27 -a 0 -x {0.0 1.0 27 ------- null}
h -t 0.533232 -s 0 -d 1 -p tcp -e 1540 -c 0 -i 27 -a 0 -x {0.0 1.0 -1 ------- null}
r -t 0.533304 -s 0 -d 1 -p tcp -e 1540 -c 0 -i 22 -a 0 -x {0.0 1.0 22 ------- null}
+ -t 0.533304 -s 1 -d 0 -p ack -e 40 -c 0 -i 122 -a 0 -x {1.0 0.0 22 ------- null}
- -t 0.533304 -s 1 -d 0 -p ack -e 40 -c 0 -i 122 -a 0 -x {1.0 0.0 22 ------- null}
h -t 0.533304 -s 1 -d 0 -p ack -e 40 -c 0 -i 122 -a 0 -x {1.0 0.0 -1 ------- null}
r -t 0.533408 -s 1 -d 0 -p ack -e 40 -c 0 -i 114 -a 0 -x {1.0 0.0 18 ------- null}
+ -t 0.533408 -s 0 -d 1 -p tcp -e 1540 -c 0 -i 123 -a 0 -x {0.0 1.0 100 ------- null}
- -t 0.534464 -s 0 -d 1 -p tcp -e 1540 -c 0 -i 28 -a 0 -x {0.0 1.0 28 ------- null}
h -t 0.534464 -s 0 -d 1 -p tcp -e 1540 -c 0 -i 28 -a 0 -x {0.0 1.0 -1 ------- null}
r -t 0.534536 -s 0 -d 1 -p tcp -e 1540 -c 0 -i 23 -a 0 -x {0.0 1.0 23 ------- null}
+ -t 0.534536 -s 1 -d 0 -p ack -e 40 -c 0 -i 124 -a 0 -x {1.0 0.0 23 ------- null}
- -t 0.534536 -s 1 -d 0 -p ack -e 40 -c 0 -i 124 -a 0 -x {1.0 0.0 23 ------- null}
h -t 0.534536 -s 1 -d 0 -p ack -e 40 -c 0 -i 124 -a 0 -x {1.0 0.0 -1 ------- null}
r -t 0.53464 -s 1 -d 0 -p ack -e 40 -c 0 -i 116 -a 0 -x {1.0 0.0 19 ------- null}
+ -t 0.53464 -s 0 -d 1 -p tcp -e 1540 -c 0 -i 125 -a 0 -x {0.0 1.0 101 ------- null}
- -t 0.535696 -s 0 -d 1 -p tcp -e 1540 -c 0 -i 29 -a 0 -x {0.0 1.0 29 ------- null}
h -t 0.535696 -s 0 -d 1 -p tcp -e 1540 -c 0 -i 29 -a 0 -x {0.0 1.0 -1 ------- null}
r -t 0.535768 -s 0 -d 1 -p tcp -e 1540 -c 0 -i 24 -a 0 -x {0.0 1.0 24 ------- null}
+ -t 0.535768 -s 1 -d 0 -p ack -e 40 -c 0 -i 126 -a 0 -x {1.0 0.0 24 ------- null}
- -t 0.535768 -s 1 -d 0 -p ack -e 40 -c 0 -i 126 -a 0 -x {1.0 0.0 24 ------- null}
h -t 0.535768 -s 1 -d 0 -p ack -e 40 -c 0 -i 126 -a 0 -x {1.0 0.0 -1 ------- null}
r -t 0.535872 -s 1 -d 0 -p ack -e 40 -c 0 -i 118 -a 0 -x {1.0 0.0 20 ------- null}
+ -t 0.535872 -s 0 -d 1 -p tcp -e 1540 -c 0 -i 127 -a 0 -x {0.0 1.0 102 ------- null}
- -t 0.536928 -s 0 -d 1 -p tcp -e 1540 -c 0 -i 30 -a 0 -x {0.0 1.0 30 ------- null}
h -t 0.536928 -s 0 -d 1 -p tcp -e 1540 -c 0 -i 30 -a 0 -x {0.0 1.0 -1 ------- null}
r -t 0.537 -s 0 -d 1 -p tcp -e 1540 -c 0 -i 25 -a 0 -x {0.0 1.0 25 ------- null}
+ -t 0.537 -s 1 -d 0 -p ack -e 40 -c 0 -i 128 -a 0 -x {1.0 0.0 25 ------- null}
- -t 0.537 -s 1 -d 0 -p ack -e 40 -c 0 -i 128 -a 0 -x {1.0 0.0 25 ------- null}
h -t 0.537 -s 1 -d 0 -p ack -e 40 -c 0 -i 128 -a 0 -x {1.0 0.0 -1 ------- null}
r -t 0.537104 -s 1 -d 0 -p ack -e 40 -c 0 -i 120 -a 0 -x {1.0 0.0 21 ------- null}
+ -t 0.537104 -s 0 -d 1 -p tcp -e 1540 -c 0 -i 129 -a 0 -x {0.0 1.0 103 ------- null}
- -t 0.53816 -s 0 -d 1 -p tcp -e 1540 -c 0 -i 31 -a 0 -x {0.0 1.0 31 ------- null}
h -t 0.53816 -s 0 -d 1 -p tcp -e 1540 -c 0 -i 31 -a 0 -x {0.0 1.0 -1 ------- null}
r -t 0.538232 -s 0 -d 1 -p tcp -e 1540 -c 0 -i 26 -a 0 -x {0.0 1.0 26 ------- null}
+ -t 0.538232 -s 1 -d 0 -p ack -e 40 -c 0 -i 130 -a 0 -x {1.0 0.0 26 ------- null}
- -t 0.538232 -s 1 -d 0 -p ack -e 40 -c 0 -i 130 -a 0 -x {1.0 0.0 26 ------- null}
h -t 0.538232 -s 1 -d 0 -p ack -e 40 -c 0 -i 130 -a 0 -x {1.0 0.0 -1 ------- null}
r -t 0.538336 -s 1 -d 0 -p ack -e 40 -c 0 -i 122 -a 0 -x {1.0 0.0 22 ------- null}
+ -t 0.538336 -s 0 -d 1 -p tcp -e 1540 -c 0 -i 131 -a 0 -x {0.0 1.0 104 ------- null}
- -t 0.539392 -s 0 -d 1 -p tcp -e 1540 -c 0 -i 32 -a 0 -x {0.0 1.0 32 ------- null}
h -t 0.539392 -s 0 -d 1 -p tcp -e 1540 -c 0 -i 32 -a 0 -x {0.0 1.0 -1 ------- null}
r -t 0.539464 -s 0 -d 1 -p tcp -e 1540 -c 0 -i 27 -a 0 -x {0.0 1.0 27 ------- null}
+ -t 0.539464 -s 1 -d 0 -p ack -e 40 -c 0 -i 132 -a 0 -x {1.0 0.0 27 ------- null}
- -t 0.539464 -s 1 -d 0 -p ack -e 40 -c 0 -i 132 -a 0 -x {1.0 0.0 27 ------- null}
h -t 0.539464 -s 1 -d 0 -p ack -e 40 -c 0 -i 132 -a 0 -x {1.0 0.0 -1 ------- null}
r -t 0.539568 -s 1 -d 0 -p ack -e 40 -c 0 -i 124 -a 0 -x {1.0 0.0 23 ------- null}
+ -t 0.539568 -s 0 -d 1 -p tcp -e 1540 -c 0 -i 133 -a 0 -x {0.0 1.0 105 ------- null}
- -t 0.540624 -s 0 -d 1 -p tcp -e 1540 -c 0 -i 33 -a 0 -x {0.0 1.0 33 ------- null}
h -t 0.540624 -s 0 -d 1 -p tcp -e 1540 -c 0 -i 33 -a 0 -x {0.0 1.0 -1 ------- null}
r -t 0.540696 -s 0 -d 1 -p tcp -e 1540 -c 0 -i 28 -a 0 -x {0.0 1.0 28 ------- null}
+ -t 0.540696 -s 1 -d 0 -p ack -e 40 -c 0 -i 134 -a 0 -x {1.0 0.0 28 ------- null}
- -t 0.540696 -s 1 -d 0 -p ack -e 40 -c 0 -i 134 -a 0 -x {1.0 0.0 28 ------- null}
h -t 0.540696 -s 1 -d 0 -p ack -e 40 -c 0 -i 134 -a 0 -x {1.0 0.0 -1 ------- null}
r -t 0.5408 -s 1 -d 0 -p ack -e 40 -c 0 -i 126 -a 0 -x {1.0 0.0 24 ------- null}
+ -t 0.5408 -s 0 -d 1 -p tcp -e 1540 -c 0 -i 135 -a 0 -x {0.0 1.0 106 ------- null}
- -t 0.541856 -s 0 -d 1 -p tcp -e 1540 -c 0 -i 34 -a 0 -x {0.0 1.0 34 ------- null}
h -t 0.541856 -s 0 -d 1 -p tcp -e 1540 -c 0 -i 34 -a 0 -x {0.0 1.0 -1 ------- null}
r -t 0.541928 -s 0 -d 1 -p tcp -e 1540 -c 0 -i 29 -a 0 -x {0.0 1.0 29 ------- null}
+ -t 0.541928 -s 1 -d 0 -p ack -e 40 -c 0 -i 136 -a 0 -x {1.0 0.0 29 ------- null}
- -t 0.541928 -s 1 -d 0 -p ack -e 40 -c 0 -i 136 -a 0 -x {1.0 0.0 29 ------- null}
h -t 0.541928 -s 1 -d 0 -p ack -e 40 -c 0 -i 136 -a 0 -x {1.0 0.0 -1 ------- null}
r -t 0.542032 -s 1 -d 0 -p ack -e 40 -c 0 -i 128 -a 0 -x {1.0 0.0 25 ------- null}
+ -t 0.542032 -s 0 -d 1 -p tcp -e 1540 -c 0 -i 137 -a 0 -x {0.0 1.0 107 ------- null}
- -t 0.543088 -s 0 -d 1 -p tcp -e 1540 -c 0 -i 35 -a 0 -x {0.0 1.0 35 ------- null}
h -t 0.543088 -s 0 -d 1 -p tcp -e 1540 -c 0 -i 35 -a 0 -x {0.0 1.0 -1 ------- null}
r -t 0.54316 -s 0 -d 1 -p tcp -e 1540 -c 0 -i 30 -a 0 -x {0.0 1.0 30 ------- null}
+ -t 0.54316 -s 1 -d 0 -p ack -e 40 -c 0 -i 138 -a 0 -x {1.0 0.0 30 ------- null}
- -t 0.54316 -s 1 -d 0 -p ack -e 40 -c 0 -i 138 -a 0 -x {1.0 0.0 30 ------- null}
h -t 0.54316 -s 1 -d 0 -p ack -e 40 -c 0 -i 138 -a 0 -x {1.0 0.0 -1 ------- null}
r -t 0.543264 -s 1 -d 0 -p ack -e 40 -c 0 -i 130 -a 0 -x {1.0 0.0 26 ------- null}