+ 0.5 0 1 tcp 1000 ------- 0 0.0 1.0 0 0
- 0.5 0 1 tcp 1000 ------- 0 0.0 1.0 0 0
+ 0.5 0 1 tcp 1040 ------- 0 0.0 1.0 1 1
+ 0.5 0 1 tcp 1040 ------- 0 0.0 1.0 2 2
+ 0.5 0 1 tcp 1040 ------- 0 0.0 1.0 3 3
- 0.5008 0 1 tcp 1040 ------- 0 0.0 1.0 1 1
- 0.501632 0 1 tcp 1040 ------- 0 0.0 1.0 2 2
- 0.502464 0 1 tcp 1040 ------- 0 0.0 1.0 3 3
r 0.5058 0 1 tcp 1000 ------- 0 0.0 1.0 0 0
+ 0.5058 1 0 ack 40 ------- 0 1.0 0.0 0 4
- 0.5058 1 0 ack 40 ------- 0 1.0 0.0 0 4
r 0.506632 0 1 tcp 1040 ------- 0 0.0 1.0 1 1
+ 0.506632 1 0 ack 40 ------- 0 1.0 0.0 1 5
- 0.506632 1 0 ack 40 ------- 0 1.0 0.0 1 5
r 0.507464 0 1 tcp 1040 ------- 0 0.0 1.0 2 2
+ 0.507464 1 0 ack 40 ------- 0 1.0 0.0 2 6
- 0.507464 1 0 ack 40 ------- 0 1.0 0.0 2 6
r 0.508296 0 1 tcp 1040 ------- 0 0.0 1.0 3 3
+ 0.508296 1 0 ack 40 ------- 0 1.0 0.0 3 7
- 0.508296 1 0 ack 40 ------- 0 1.0 0.0 3 7
r 0.510832 1 0 ack 40 ------- 0 1.0 0.0 0 4
+ 0.510832 0 1 tcp 1040 ------- 0 0.0 1.0 4 8
- 0.510832 0 1 tcp 1040 ------- 0 0.0 1.0 4 8
r 0.511664 1 0 ack 40 ------- 0 1.0 0.0 1 5
+ 0.511664 0 1 tcp 1040 ------- 0 0.0 1.0 5 9
- 0.511664 0 1 tcp 1040 ------- 0 0.0 1.0 5 9
r 0.512496 1 0 ack 40 ------- 0 1.0 0.0 2 6
+ 0.512496 0 1 tcp 1040 ------- 0 0.0 1.0 6 10
- 0.512496 0 1 tcp 1040 ------- 0 0.0 1.0 6 10
r 0.513328 1 0 ack 40 ------- 0 1.0 0.0 3 7
+ 0.513328 0 1 tcp 1040 ------- 0 0.0 1.0 7 11
- 0.513328 0 1 tcp 1040 ------- 0 0.0 1.0 7 11
r 0.516664 0 1 tcp 1040 ------- 0 0.0 1.0 4 8
+ 0.516664 1 0 ack 40 ------- 0 1.0 0.0 4 12
- 0.516664 1 0 ack 40 ------- 0 1.0 0.0 4 12
r 0.517496 0 1 tcp 1040 ------- 0 0.0 1.0 5 9
+ 0.517496 1 0 ack 40 ------- 0 1.0 0.0 5 13
- 0.517496 1 0 ack 40 ------- 0 1.0 0.0 5 13
r 0.518328 0 1 tcp 1040 ------- 0 0.0 1.0 6 10
+ 0.518328 1 0 ack 40 ------- 0 1.0 0.0 6 14
- 0.518328 1 0 ack 40 ------- 0 1.0 0.0 6 14
r 0.51916 0 1 tcp 1040 ------- 0 0.0 1.0 7 11
+ 0.51916 1 0 ack 40 ------- 0 1.0 0.0 7 15
- 0.51916 1 0 ack 40 ------- 0 1.0 0.0 7 15
r 0.521696 1 0 ack 40 ------- 0 1.0 0.0 4 12
+ 0.521696 0 1 tcp 1040 ------- 0 0.0 1.0 8 16
- 0.521696 0 1 tcp 1040 ------- 0 0.0 1.0 8 16
r 0.522528 1 0 ack 40 ------- 0 1.0 0.0 5 13
+ 0.522528 0 1 tcp 1040 ------- 0 0.0 1.0 9 17
- 0.522528 0 1 tcp 1040 ------- 0 0.0 1.0 9 17
r 0.52336 1 0 ack 40 ------- 0 1.0 0.0 6 14
+ 0.52336 0 1 tcp 1040 ------- 0 0.0 1.0 10 18
- 0.52336 0 1 tcp 1040 ------- 0 0.0 1.0 10 18
r 0.524192 1 0 ack 40 ------- 0 1.0 0.0 7 15
+ 0.524192 0 1 tcp 1040 ------- 0 0.0 1.0 11 19
- 0.524192 0 1 tcp 1040 ------- 0 0.0 1.0 11 19
r 0.527528 0 1 tcp 1040 ------- 0 0.0 1.0 8 16
+ 0.527528 1 0 ack 40 ------- 0 1.0 0.0 8 20
- 0.527528 1 0 ack 40 ------- 0 1.0 0.0 8 20
r 0.52836 0 1 tcp 1040 ------- 0 0.0 1.0 9 17
+ 0.52836 1 0 ack 40 ------- 0 1.0 0.0 9 21
- 0.52836 1 0 ack 40 ------- 0 1.0 0.0 9 21
r 0.529192 0 1 tcp 1040 ------- 0 0.0 1.0 10 18
+ 0.529192 1 0 ack 40 ------- 0 1.0 0.0 10 22
- 0.529192 1 0 ack 40 ------- 0 1.0 0.0 10 22
r 0.530024 0 1 tcp 1040 ------- 0 0.0 1.0 11 19
+ 0.530024 1 0 ack 40 ------- 0 1.0 0.0 11 23
- 0.530024 1 0 ack 40 ------- 0 1.0 0.0 11 23
r 0.53256 1 0 ack 40 ------- 0 1.0 0.0 8 20
+ 0.53256 0 1 tcp 1040 ------- 0 0.0 1.0 12 24
- 0.53256 0 1 tcp 1040 ------- 0 0.0 1.0 12 24
r 0.533392 1 0 ack 40 ------- 0 1.0 0.0 9 21
+ 0.533392 0 1 tcp 1040 ------- 0 0.0 1.0 13 25
- 0.533392 0 1 tcp 1040 ------- 0 0.0 1.0 13 25
r 0.534224 1 0 ack 40 ------- 0 1.0 0.0 10 22
+ 0.534224 0 1 tcp 1040 ------- 0 0.0 1.0 14 26
- 0.534224 0 1 tcp 1040 ------- 0 0.0 1.0 14 26
r 0.535056 1 0 ack 40 ------- 0 1.0 0.0 11 23
+ 0.535056 0 1 tcp 1040 ------- 0 0.0 1.0 15 27
- 0.535056 0 1 tcp 1040 ------- 0 0.0 1.0 15 27
r 0.538392 0 1 tcp 1040 ------- 0 0.0 1.0 12 24
+ 0.538392 1 0 ack 40 ------- 0 1.0 0.0 12 28
- 0.538392 1 0 ack 40 ------- 0 1.0 0.0 12 28
r 0.539224 0 1 tcp 1040 ------- 0 0.0 1.0 13 25
+ 0.539224 1 0 ack 40 ------- 0 1.0 0.0 13 29
- 0.539224 1 0 ack 40 ------- 0 1.0 0.0 13 29
r 0.540056 0 1 tcp 1040 ------- 0 0.0 1.0 14 26
+ 0.540056 1 0 ack 40 ------- 0 1.0 0.0 14 30
- 0.540056 1 0 ack 40 ------- 0 1.0 0.0 14 30
r 0.540888 0 1 tcp 1040 ------- 0 0.0 1.0 15 27
+ 0.540888 1 0 ack 40 ------- 0 1.0 0.0 15 31
- 0.540888 1 0 ack 40 ------- 0 1.0 0.0 15 31
r 0.543424 1 0 ack 40 ------- 0 1.0 0.0 12 28
+ 0.543424 0 1 tcp 1040 ------- 0 0.0 1.0 16 32
- 0.543424 0 1 tcp 1040 ------- 0 0.0 1.0 16 32
r 0.544256 1 0 ack 40 ------- 0 1.0 0.0 13 29
+ 0.544256 0 1 tcp 1040 ------- 0 0.0 1.0 17 33
- 0.544256 0 1 tcp 1040 ------- 0 0.0 1.0 17 33
r 0.545088 1 0 ack 40 ------- 0 1.0 0.0 14 30
+ 0.545088 0 1 tcp 1040 ------- 0 0.0 1.0 18 34
- 0.545088 0 1 tcp 1040 ------- 0 0.0 1.0 18 34
r 0.54592 1 0 ack 40 ------- 0 1.0 0.0 15 31
+ 0.54592 0 1 tcp 1040 ------- 0 0.0 1.0 19 35
- 0.54592 0 1 tcp 1040 ------- 0 0.0 1.0 19 35
r 0.549256 0 1 tcp 1040 ------- 0 0.0 1.0 16 32
+ 0.549256 1 0 ack 40 ------- 0 1.0 0.0 16 36
- 0.549256 1 0 ack 40 ------- 0 1.0 0.0 16 36
r 0.550088 0 1 tcp 1040 ------- 0 0.0 1.0 17 33
+ 0.550088 1 0 ack 40 ------- 0 1.0 0.0 17 37
- 0.550088 1 0 ack 40 ------- 0 1.0 0.0 17 37
r 0.55092 0 1 tcp 1040 ------- 0 0.0 1.0 18 34
+ 0.55092 1 0 ack 40 ------- 0 1.0 0.0 18 38
- 0.55092 1 0 ack 40 ------- 0 1.0 0.0 18 38
r 0.551752 0 1 tcp 1040 ------- 0 0.0 1.0 19 35
+ 0.551752 1 0 ack 40 ------- 0 1.0 0.0 19 39
- 0.551752 1 0 ack 40 ------- 0 1.0 0.0 19 39
r 0.554288 1 0 ack 40 ------- 0 1.0 0.0 16 36
+ 0.554288 0 1 tcp 1040 ------- 0 0.0 1.0 20 40
- 0.554288 0 1 tcp 1040 ------- 0 0.0 1.0 20 40
r 0.55512 1 0 ack 40 ------- 0 1.0 0.0 17 37
+ 0.55512 0 1 tcp 1040 ------- 0 0.0 1.0 21 41
- 0.55512 0 1 tcp 1040 ------- 0 0.0 1.0 21 41
r 0.555952 1 0 ack 40 ------- 0 1.0 0.0 18 38
+ 0.555952 0 1 tcp 1040 ------- 0 0.0 1.0 22 42
- 0.555952 0 1 tcp 1040 ------- 0 0.0 1.0 22 42
r 0.556784 1 0 ack 40 ------- 0 1.0 0.0 19 39
+ 0.556784 0 1 tcp 1040 ------- 0 0.0 1.0 23 43
- 0.556784 0 1 tcp 1040 ------- 0 0.0 1.0 23 43
r 0.56012 0 1 tcp 1040 ------- 0 0.0 1.0 20 40
+ 0.56012 1 0 ack 40 ------- 0 1.0 0.0 20 44
- 0.56012 1 0 ack 40 ------- 0 1.0 0.0 20 44
r 0.560952 0 1 tcp 1040 ------- 0 0.0 1.0 21 41
+ 0.560952 1 0 ack 40 ------- 0 1.0 0.0 21 45
- 0.560952 1 0 ack 40 ------- 0 1.0 0.0 21 45
r 0.561784 0 1 tcp 1040 ------- 0 0.0 1.0 22 42
+ 0.561784 1 0 ack 40 ------- 0 1.0 0.0 22 46
- 0.561784 1 0 ack 40 ------- 0 1.0 0.0 22 46
r 0.562616 0 1 tcp 1040 ------- 0 0.0 1.0 23 43
+ 0.562616 1 0 ack 40 ------- 0 1.0 0.0 23 47
- 0.562616 1 0 ack 40 ------- 0 1.0 0.0 23 47
r 0.565152 1 0 ack 40 ------- 0 1.0 0.0 20 44
+ 0.565152 0 1 tcp 1040 ------- 0 0.0 1.0 24 48
- 0.565152 0 1 tcp 1040 ------- 0 0.0 1.0 24 48
r 0.565984 1 0 ack 40 ------- 0 1.0 0.0 21 45
+ 0.565984 0 1 tcp 1040 ------- 0 0.0 1.0 25 49
- 0.565984 0 1 tcp 1040 ------- 0 0.0 1.0 25 49
r 0.566816 1 0 ack 40 ------- 0 1.0 0.0 22 46
+ 0.566816 0 1 tcp 1040 ------- 0 0.0 1.0 26 50
- 0.566816 0 1 tcp 1040 ------- 0 0.0 1.0 26 50
r 0.567648 1 0 ack 40 ------- 0 1.0 0.0 23 47
+ 0.567648 0 1 tcp 1040 ------- 0 0.0 1.0 27 51
- 0.567648 0 1 tcp 1040 ------- 0 0.0 1.0 27 51
r 0.570984 0 1 tcp 1040 ------- 0 0.0 1.0 24 48
+ 0.570984 1 0 ack 40 ------- 0 1.0 0.0 24 52
- 0.570984 1 0 ack 40 ------- 0 1.0 0.0 24 52
r 0.571816 0 1 tcp 1040 ------- 0 0.0 1.0 25 49
+ 0.571816 1 0 ack 40 ------- 0 1.0 0.0 25 53
- 0.571816 1 0 ack 40 ------- 0 1.0 0.0 25 53
r 0.572648 0 1 tcp 1040 ------- 0 0.0 1.0 26 50
+ 0.572648 1 0 ack 40 ------- 0 1.0 0.0 26 54
- 0.572648 1 0 ack 40 ------- 0 1.0 0.0 26 54
r 0.57348 0 1 tcp 1040 ------- 0 0.0 1.0 27 51
+ 0.57348 1 0 ack 40 ------- 0 1.0 0.0 27 55
- 0.57348 1 0 ack 40 ------- 0 1.0 0.0 27 55
r 0.576016 1 0 ack 40 ------- 0 1.0 0.0 24 52
+ 0.576016 0 1 tcp 1040 ------- 0 0.0 1.0 28 56
- 0.576016 0 1 tcp 1040 ------- 0 0.0 1.0 28 56
r 0.576848 1 0 ack 40 ------- 0 1.0 0.0 25 53
+ 0.576848 0 1 tcp 1040 ------- 0 0.0 1.0 29 57
- 0.576848 0 1 tcp 1040 ------- 0 0.0 1.0 29 57
r 0.57768 1 0 ack 40 ------- 0 1.0 0.0 26 54
+ 0.57768 0 1 tcp 1040 ------- 0 0.0 1.0 30 58
- 0.57768 0 1 tcp 1040 ------- 0 0.0 1.0 30 58
r 0.578512 1 0 ack 40 ------- 0 1.0 0.0 27 55
+ 0.578512 0 1 tcp 1040 ------- 0 0.0 1.0 31 59
- 0.578512 0 1 tcp 1040 ------- 0 0.0 1.0 31 59
r 0.581848 0 1 tcp 1040 ------- 0 0.0 1.0 28 56
+ 0.581848 1 0 ack 40 ------- 0 1.0 0.0 28 60
- 0.581848 1 0 ack 40 ------- 0 1.0 0.0 28 60
r 0.58268 0 1 tcp 1040 ------- 0 0.0 1.0 29 57
+ 0.58268 1 0 ack 40 ------- 0 1.0 0.0 29 61
- 0.58268 1 0 ack 40 ------- 0 1.0 0.0 29 61
r 0.583512 0 1 tcp 1040 ------- 0 0.0 1.0 30 58
+ 0.583512 1 0 ack 40 ------- 0 1.0 0.0 30 62
- 0.583512 1 0 ack 40 ------- 0 1.0 0.0 30 62
r 0.584344 0 1 tcp 1040 ------- 0 0.0 1.0 31 59
+ 0.584344 1 0 ack 40 ------- 0 1.0 0.0 31 63
- 0.584344 1 0 ack 40 ------- 0 1.0 0.0 31 63
r 0.58688 1 0 ack 40 ------- 0 1.0 0.0 28 60
+ 0.58688 0 1 tcp 1040 ------- 0 0.0 1.0 32 64
- 0.58688 0 1 tcp 1040 ------- 0 0.0 1.0 32 64
r 0.587712 1 0 ack 40 ------- 0 1.0 0.0 29 61
+ 0.587712 0 1 tcp 1040 ------- 0 0.0 1.0 33 65
- 0.587712 0 1 tcp 1040 ------- 0 0.0 1.0 33 65
r 0.588544 1 0 ack 40 ------- 0 1.0 0.0 30 62
+ 0.588544 0 1 tcp 1040 ------- 0 0.0 1.0 34 66
- 0.588544 0 1 tcp 1040 ------- 0 0.0 1.0 34 66
r 0.589376 1 0 ack 40 ------- 0 1.0 0.0 31 63
+ 0.589376 0 1 tcp 1040 ------- 0 0.0 1.0 35 67
- 0.589376 0 1 tcp 1040 ------- 0 0.0 1.0 35 67
r 0.592712 0 1 tcp 1040 ------- 0 0.0 1.0 32 64
+ 0.592712 1 0 ack 40 ------- 0 1.0 0.0 32 68
- 0.592712 1 0 ack 40 ------- 0 1.0 0.0 32 68
r 0.593544 0 1 tcp 1040 ------- 0 0.0 1.0 33 65
+ 0.593544 1 0 ack 40 ------- 0 1.0 0.0 33 69
- 0.593544 1 0 ack 40 ------- 0 1.0 0.0 33 69
r 0.594376 0 1 tcp 1040 ------- 0 0.0 1.0 34 66
+ 0.594376 1 0 ack 40 ------- 0 1.0 0.0 34 70
- 0.594376 1 0 ack 40 ------- 0 1.0 0.0 34 70
r 0.595208 0 1 tcp 1040 ------- 0 0.0 1.0 35 67
+ 0.595208 1 0 ack 40 ------- 0 1.0 0.0 35 71
- 0.595208 1 0 ack 40 ------- 0 1.0 0.0 35 71
r 0.597744 1 0 ack 40 ------- 0 1.0 0.0 32 68
+ 0.597744 0 1 tcp 1040 ------- 0 0.0 1.0 36 72
- 0.597744 0 1 tcp 1040 ------- 0 0.0 1.0 36 72
r 0.598576 1 0 ack 40 ------- 0 1.0 0.0 33 69
+ 0.598576 0 1 tcp 1040 ------- 0 0.0 1.0 37 73
- 0.598576 0 1 tcp 1040 ------- 0 0.0 1.0 37 73
r 0.599408 1 0 ack 40 ------- 0 1.0 0.0 34 70
+ 0.599408 0 1 tcp 1040 ------- 0 0.0 1.0 38 74
- 0.599408 0 1 tcp 1040 ------- 0 0.0 1.0 38 74
r 0.60024 1 0 ack 40 ------- 0 1.0 0.0 35 71
+ 0.60024 0 1 tcp 1040 ------- 0 0.0 1.0 39 75
- 0.60024 0 1 tcp 1040 ------- 0 0.0 1.0 39 75
r 0.603576 0 1 tcp 1040 ------- 0 0.0 1.0 36 72
+ 0.603576 1 0 ack 40 ------- 0 1.0 0.0 36 76
- 0.603576 1 0 ack 40 ------- 0 1.0 0.0 36 76
r 0.604408 0 1 tcp 1040 ------- 0 0.0 1.0 37 73
+ 0.604408 1 0 ack 40 ------- 0 1.0 0.0 37 77
- 0.604408 1 0 ack 40 ------- 0 1.0 0.0 37 77
r 0.60524 0 1 tcp 1040 ------- 0 0.0 1.0 38 74
+ 0.60524 1 0 ack 40 ------- 0 1.0 0.0 38 78
- 0.60524 1 0 ack 40 ------- 0 1.0 0.0 38 78
r 0.606072 0 1 tcp 1040 ------- 0 0.0 1.0 39 75
+ 0.606072 1 0 ack 40 ------- 0 1.0 0.0 39 79
- 0.606072 1 0 ack 40 ------- 0 1.0 0.0 39 79
r 0.608608 1 0 ack 40 ------- 0 1.0 0.0 36 76
+ 0.608608 0 1 tcp 1040 ------- 0 0.0 1.0 40 80
- 0.608608 0 1 tcp 1040 ------- 0 0.0 1.0 40 80
r 0.60944 1 0 ack 40 ------- 0 1.0 0.0 37 77
+ 0.60944 0 1 tcp 1040 ------- 0 0.0 1.0 41 81
- 0.60944 0 1 tcp 1040 ------- 0 0.0 1.0 41 81
r 0.610272 1 0 ack 40 ------- 0 1.0 0.0 38 78
+ 0.610272 0 1 tcp 1040 ------- 0 0.0 1.0 42 82
- 0.610272 0 1 tcp 1040 ------- 0 0.0 1.0 42 82
r 0.611104 1 0 ack 40 ------- 0 1.0 0.0 39 79
+ 0.611104 0 1 tcp 1040 ------- 0 0.0 1.0 43 83
- 0.611104 0 1 tcp 1040 ------- 0 0.0 1.0 43 83
r 0.61444 0 1 tcp 1040 ------- 0 0.0 1.0 40 80
+ 0.61444 1 0 ack 40 ------- 0 1.0 0.0 40 84
- 0.61444 1 0 ack 40 ------- 0 1.0 0.0 40 84
r 0.615272 0 1 tcp 1040 ------- 0 0.0 1.0 41 81
+ 0.615272 1 0 ack 40 ------- 0 1.0 0.0 41 85
- 0.615272 1 0 ack 40 ------- 0 1.0 0.0 41 85
r 0.616104 0 1 tcp 1040 ------- 0 0.0 1.0 42 82
+ 0.616104 1 0 ack 40 ------- 0 1.0 0.0 42 86
- 0.616104 1 0 ack 40 ------- 0 1.0 0.0 42 86
r 0.616936 0 1 tcp 1040 ------- 0 0.0 1.0 43 83
+ 0.616936 1 0 ack 40 ------- 0 1.0 0.0 43 87
- 0.616936 1 0 ack 40 ------- 0 1.0 0.0 43 87
r 0.619472 1 0 ack 40 ------- 0 1.0 0.0 40 84
+ 0.619472 0 1 tcp 1040 ------- 0 0.0 1.0 44 88
- 0.619472 0 1 tcp 1040 ------- 0 0.0 1.0 44 88
r 0.620304 1 0 ack 40 ------- 0 1.0 0.0 41 85
+ 0.620304 0 1 tcp 1040 ------- 0 0.0 1.0 45 89
- 0.620304 0 1 tcp 1040 ------- 0 0.0 1.0 45 89
r 0.621136 1 0 ack 40 ------- 0 1.0 0.0 42 86
+ 0.621136 0 1 tcp 1040 ------- 0 0.0 1.0 46 90
- 0.621136 0 1 tcp 1040 ------- 0 0.0 1.0 46 90
r 0.621968 1 0 ack 40 ------- 0 1.0 0.0 43 87
+ 0.621968 0 1 tcp 1040 ------- 0 0.0 1.0 47 91
- 0.621968 0 1 tcp 1040 ------- 0 0.0 1.0 47 91
r 0.625304 0 1 tcp 1040 ------- 0 0.0 1.0 44 88
+ 0.625304 1 0 ack 40 ------- 0 1.0 0.0 44 92
- 0.625304 1 0 ack 40 ------- 0 1.0 0.0 44 92
r 0.626136 0 1 tcp 1040 ------- 0 0.0 1.0 45 89
+ 0.626136 1 0 ack 40 ------- 0 1.0 0.0 45 93
- 0.626136 1 0 ack 40 ------- 0 1.0 0.0 45 93
r 0.626968 0 1 tcp 1040 ------- 0 0.0 1.0 46 90
+ 0.626968 1 0 ack 40 ------- 0 1.0 0.0 46 94
- 0.626968 1 0 ack 40 ------- 0 1.0 0.0 46 94
r 0.6278 0 1 tcp 1040 ------- 0 0.0 1.0 47 91
+ 0.6278 1 0 ack 40 ------- 0 1.0 0.0 47 95
- 0.6278 1 0 ack 40 ------- 0 1.0 0.0 47 95
r 0.630336 1 0 ack 40 ------- 0 1.0 0.0 44 92
+ 0.630336 0 1 tcp 1040 ------- 0 0.0 1.0 48 96
- 0.630336 0 1 tcp 1040 ------- 0 0.0 1.0 48 96
r 0.631168 1 0 ack 40 ------- 0 1.0 0.0 45 93
+ 0.631168 0 1 tcp 1040 ------- 0 0.0 1.0 49 97
- 0.631168 0 1 tcp 1040 ------- 0 0.0 1.0 49 97
r 0.632 1 0 ack 40 ------- 0 1.0 0.0 46 94
+ 0.632 0 1 tcp 1040 ------- 0 0.0 1.0 50 98
- 0.632 0 1 tcp 1040 ------- 0 0.0 1.0 50 98
r 0.632832 1 0 ack 40 ------- 0 1.0 0.0 47 95
+ 0.632832 0 1 tcp 1040 ------- 0 0.0 1.0 51 99
- 0.632832 0 1 tcp 1040 ------- 0 0.0 1.0 51 99
r 0.636168 0 1 tcp 1040 ------- 0 0.0 1.0 48 96
+ 0.636168 1 0 ack 40 ------- 0 1.0 0.0 48 100
- 0.636168 1 0 ack 40 ------- 0 1.0 0.0 48 100
r 0.637 0 1 tcp 1040 ------- 0 0.0 1.0 49 97
+ 0.637 1 0 ack 40 ------- 0 1.0 0.0 49 101
- 0.637 1 0 ack 40 ------- 0 1.0 0.0 49 101
r 0.637832 0 1 tcp 1040 ------- 0 0.0 1.0 50 98
+ 0.637832 1 0 ack 40 ------- 0 1.0 0.0 50 102
- 0.637832 1 0 ack 40 ------- 0 1.0 0.0 50 102
r 0.638664 0 1 tcp 1040 ------- 0 0.0 1.0 51 99
+ 0.638664 1 0 ack 40 ------- 0 1.0 0.0 51 103
- 0.638664 1 0 ack 40 ------- 0 1.0 0.0 51 103
r 0.6412 1 0 ack 40 ------- 0 1.0 0.0 48 100
+ 0.6412 0 1 tcp 1040 ------- 0 0.0 1.0 52 104
- 0.6412 0 1 tcp 1040 ------- 0 0.0 1.0 52 104
r 0.642032 1 0 ack 40 ------- 0 1.0 0.0 49 101
+ 0.642032 0 1 tcp 1040 ------- 0 0.0 1.0 53 105
- 0.642032 0 1 tcp 1040 ------- 0 0.0 1.0 53 105
r 0.642864 1 0 ack 40 ------- 0 1.0 0.0 50 102
+ 0.642864 0 1 tcp 1040 ------- 0 0.0 1.0 54 106
- 0.642864 0 1 tcp 1040 ------- 0 0.0 1.0 54 106
r 0.643696 1 0 ack 40 ------- 0 1.0 0.0 51 103
+ 0.643696 0 1 tcp 1040 ------- 0 0.0 1.0 55 107
- 0.643696 0 1 tcp 1040 ------- 0 0.0 1.0 55 107
r 0.647032 0 1 tcp 1040 ------- 0 0.0 1.0 52 104
+ 0.647032 1 0 ack 40 ------- 0 1.0 0.0 52 108
- 0.647032 1 0 ack 40 ------- 0 1.0 0.0 52 108
r 0.647864 0 1 tcp 1040 ------- 0 0.0 1.0 53 105
+ 0.647864 1 0 ack 40 ------- 0 1.0 0.0 53 109
- 0.647864 1 0 ack 40 ------- 0 1.0 0.0 53 109
r 0.648696 0 1 tcp 1040 ------- 0 0.0 1.0 54 106
+ 0.648696 1 0 ack 40 ------- 0 1.0 0.0 54 110
- 0.648696 1 0 ack 40 ------- 0 1.0 0.0 54 110
r 0.649528 0 1 tcp 1040 ------- 0 0.0 1.0 55 107
+ 0.649528 1 0 ack 40 ------- 0 1.0 0.0 55 111
- 0.649528 1 0 ack 40 ------- 0 1.0 0.0 55 111
r 0.652064 1 0 ack 40 ------- 0 1.0 0.0 52 108
+ 0.652064 0 1 tcp 1040 ------- 0 0.0 1.0 56 112
- 0.652064 0 1 tcp 1040 ------- 0 0.0 1.0 56 112
r 0.652896 1 0 ack 40 ------- 0 1.0 0.0 53 109
+ 0.652896 0 1 tcp 1040 ------- 0 0.0 1.0 57 113
- 0.652896 0 1 tcp 1040 ------- 0 0.0 1.0 57 113
r 0.653728 1 0 ack 40 ------- 0 1.0 0.0 54 110
+ 0.653728 0 1 tcp 1040 ------- 0 0.0 1.0 58 114
- 0.653728 0 1 tcp 1040 ------- 0 0.0 1.0 58 114
r 0.65456 1 0 ack 40 ------- 0 1.0 0.0 55 111
+ 0.65456 0 1 tcp 1040 ------- 0 0.0 1.0 59 115
- 0.65456 0 1 tcp 1040 ------- 0 0.0 1.0 59 115
r 0.657896 0 1 tcp 1040 ------- 0 0.0 1.0 56 112
+ 0.657896 1 0 ack 40 ------- 0 1.0 0.0 56 116
- 0.657896 1 0 ack 40 ------- 0 1.0 0.0 56 116
r 0.658728 0 1 tcp 1040 ------- 0 0.0 1.0 57 113
+ 0.658728 1 0 ack 40 ------- 0 1.0 0.0 57 117
- 0.658728 1 0 ack 40 ------- 0 1.0 0.0 57 117
r 0.65956 0 1 tcp 1040 ------- 0 0.0 1.0 58 114
+ 0.65956 1 0 ack 40 ------- 0 1.0 0.0 58 118
- 0.65956 1 0 ack 40 ------- 0 1.0 0.0 58 118
r 0.660392 0 1 tcp 1040 ------- 0 0.0 1.0 59 115
+ 0.660392 1 0 ack 40 ------- 0 1.0 0.0 59 119
- 0.660392 1 0 ack 40 ------- 0 1.0 0.0 59 119
r 0.662928 1 0 ack 40 ------- 0 1.0 0.0 56 116
+ 0.662928 0 1 tcp 1040 ------- 0 0.0 1.0 60 120
- 0.662928 0 1 tcp 1040 ------- 0 0.0 1.0 60 120
r 0.66376 1 0 ack 40 ------- 0 1.0 0.0 57 117
+ 0.66376 0 1 tcp 1040 ------- 0 0.0 1.0 61 121
- 0.66376 0 1 tcp 1040 ------- 0 0.0 1.0 61 121
r 0.664592 1 0 ack 40 ------- 0 1.0 0.0 58 118
+ 0.664592 0 1 tcp 1040 ------- 0 0.0 1.0 62 122
- 0.664592 0 1 tcp 1040 ------- 0 0.0 1.0 62 122
r 0.665424 1 0 ack 40 ------- 0 1.0 0.0 59 119
+ 0.665424 0 1 tcp 1040 ------- 0 0.0 1.0 63 123
- 0.665424 0 1 tcp 1040 ------- 0 0.0 1.0 63 123
r 0.66876 0 1 tcp 1040 ------- 0 0.0 1.0 60 120
+ 0.66876 1 0 ack 40 ------- 0 1.0 0.0 60 124
- 0.66876 1 0 ack 40 ------- 0 1.0 0.0 60 124
r 0.669592 0 1 tcp 1040 ------- 0 0.0 1.0 61 121
+ 0.669592 1 0 ack 40 ------- 0 1.0 0.0 61 125
- 0.669592 1 0 ack 40 ------- 0 1.0 0.0 61 125
r 0.670424 0 1 tcp 1040 ------- 0 0.0 1.0 62 122
+ 0.670424 1 0 ack 40 ------- 0 1.0 0.0 62 126
- 0.670424 1 0 ack 40 ------- 0 1.0 0.0 62 126
r 0.671256 0 1 tcp 1040 ------- 0 0.0 1.0 63 123
+ 0.671256 1 0 ack 40 ------- 0 1.0 0.0 63 127
- 0.671256 1 0 ack 40 ------- 0 1.0 0.0 63 127
r 0.673792 1 0 ack 40 ------- 0 1.0 0.0 60 124
+ 0.673792 0 1 tcp 1040 ------- 0 0.0 1.0 64 128
- 0.673792 0 1 tcp 1040 ------- 0 0.0 1.0 64 128
r 0.674624 1 0 ack 40 ------- 0 1.0 0.0 61 125
+ 0.674624 0 1 tcp 1040 ------- 0 0.0 1.0 65 129
- 0.674624 0 1 tcp 1040 ------- 0 0.0 1.0 65 129
r 0.675456 1 0 ack 40 ------- 0 1.0 0.0 62 126
+ 0.675456 0 1 tcp 1040 ------- 0 0.0 1.0 66 130
- 0.675456 0 1 tcp 1040 ------- 0 0.0 1.0 66 130
r 0.676288 1 0 ack 40 ------- 0 1.0 0.0 63 127
+ 0.676288 0 1 tcp 1040 ------- 0 0.0 1.0 67 131
- 0.676288 0 1 tcp 1040 ------- 0 0.0 1.0 67 131
r 0.679624 0 1 tcp 1040 ------- 0 0.0 1.0 64 128
+ 0.679624 1 0 ack 40 ------- 0 1.0 0.0 64 132
- 0.679624 1 0 ack 40 ------- 0 1.0 0.0 64 132
r 0.680456 0 1 tcp 1040 ------- 0 0.0 1.0 65 129
+ 0.680456 1 0 ack 40 ------- 0 1.0 0.0 65 133
- 0.680456 1 0 ack 40 ------- 0 1.0 0.0 65 133
r 0.681288 0 1 tcp 1040 ------- 0 0.0 1.0 66 130
+ 0.681288 1 0 ack 40 ------- 0 1.0 0.0 66 134
- 0.681288 1 0 ack 40 ------- 0 1.0 0.0 66 134
r 0.68212 0 1 tcp 1040 ------- 0 0.0 1.0 67 131
+ 0.68212 1 0 ack 40 ------- 0 1.0 0.0 67 135
- 0.68212 1 0 ack 40 ------- 0 1.0 0.0 67 135
r 0.684656 1 0 ack 40 ------- 0 1.0 0.0 64 132
+ 0.684656 0 1 tcp 1040 ------- 0 0.0 1.0 68 136
- 0.684656 0 1 tcp 1040 ------- 0 0.0 1.0 68 136
r 0.685488 1 0 ack 40 ------- 0 1.0 0.0 65 133
+ 0.685488 0 1 tcp 1040 ------- 0 0.0 1.0 69 137
- 0.685488 0 1 tcp 1040 ------- 0 0.0 1.0 69 137
r 0.68632 1 0 ack 40 ------- 0 1.0 0.0 66 134
+ 0.68632 0 1 tcp 1040 ------- 0 0.0 1.0 70 138
- 0.68632 0 1 tcp 1040 ------- 0 0.0 1.0 70 138
r 0.687152 1 0 ack 40 ------- 0 1.0 0.0 67 135
+ 0.687152 0 1 tcp 1040 ------- 0 0.0 1.0 71 139
- 0.687152 0 1 tcp 1040 ------- 0 0.0 1.0 71 139
r 0.690488 0 1 tcp 1040 ------- 0 0.0 1.0 68 136
+ 0.690488 1 0 ack 40 ------- 0 1.0 0.0 68 140
- 0.690488 1 0 ack 40 ------- 0 1.0 0.0 68 140
r 0.69132 0 1 tcp 1040 ------- 0 0.0 1.0 69 137
+ 0.69132 1 0 ack 40 ------- 0 1.0 0.0 69 141
- 0.69132 1 0 ack 40 ------- 0 1.0 0.0 69 141
r 0.692152 0 1 tcp 1040 ------- 0 0.0 1.0 70 138
+ 0.692152 1 0 ack 40 ------- 0 1.0 0.0 70 142
- 0.692152 1 0 ack 40 ------- 0 1.0 0.0 70 142
r 0.692984 0 1 tcp 1040 ------- 0 0.0 1.0 71 139
+ 0.692984 1 0 ack 40 ------- 0 1.0 0.0 71 143
- 0.692984 1 0 ack 40 ------- 0 1.0 0.0 71 143
r 0.69552 1 0 ack 40 ------- 0 1.0 0.0 68 140
+ 0.69552 0 1 tcp 1040 ------- 0 0.0 1.0 72 144
- 0.69552 0 1 tcp 1040 ------- 0 0.0 1.0 72 144
r 0.696352 1 0 ack 40 ------- 0 1.0 0.0 69 141
+ 0.696352 0 1 tcp 1040 ------- 0 0.0 1.0 73 145
- 0.696352 0 1 tcp 1040 ------- 0 0.0 1.0 73 145
r 0.697184 1 0 ack 40 ------- 0 1.0 0.0 70 142
+ 0.697184 0 1 tcp 1040 ------- 0 0.0 1.0 74 146
- 0.697184 0 1 tcp 1040 ------- 0 0.0 1.0 74 146
r 0.698016 1 0 ack 40 ------- 0 1.0 0.0 71 143
+ 0.698016 0 1 tcp 1040 ------- 0 0.0 1.0 75 147
- 0.698016 0 1 tcp 1040 ------- 0 0.0 1.0 75 147
r 0.701352 0 1 tcp 1040 ------- 0 0.0 1.0 72 144
+ 0.701352 1 0 ack 40 ------- 0 1.0 0.0 72 148
- 0.701352 1 0 ack 40 ------- 0 1.0 0.0 72 148
r 0.702184 0 1 tcp 1040 ------- 0 0.0 1.0 73 145
+ 0.702184 1 0 ack 40 ------- 0 1.0 0.0 73 149
- 0.702184 1 0 ack 40 ------- 0 1.0 0.0 73 149
r 0.703016 0 1 tcp 1040 ------- 0 0.0 1.0 74 146
+ 0.703016 1 0 ack 40 ------- 0 1.0 0.0 74 150
- 0.703016 1 0 ack 40 ------- 0 1.0 0.0 74 150
r 0.703848 0 1 tcp 1040 ------- 0 0.0 1.0 75 147
+ 0.703848 1 0 ack 40 ------- 0 1.0 0.0 75 151
- 0.703848 1 0 ack 40 ------- 0 1.0 0.0 75 151
r 0.706384 1 0 ack 40 ------- 0 1.0 0.0 72 148
+ 0.706384 0 1 tcp 1040 ------- 0 0.0 1.0 76 152
- 0.706384 0 1 tcp 1040 ------- 0 0.0 1.0 76 152
r 0.707216 1 0 ack 40 ------- 0 1.0 0.0 73 149
+ 0.707216 0 1 tcp 1040 ------- 0 0.0 1.0 77 153
- 0.707216 0 1 tcp 1040 ------- 0 0.0 1.0 77 153
r 0.708048 1 0 ack 40 ------- 0 1.0 0.0 74 150
+ 0.708048 0 1 tcp 1040 ------- 0 0.0 1.0 78 154
- 0.708048 0 1 tcp 1040 ------- 0 0.0 1.0 78 154
r 0.70888 1 0 ack 40 ------- 0 1.0 0.0 75 151
+ 0.70888 0 1 tcp 1040 ------- 0 0.0 1.0 79 155
- 0.70888 0 1 tcp 1040 ------- 0 0.0 1.0 79 155
r 0.712216 0 1 tcp 1040 ------- 0 0.0 1.0 76 152
+ 0.712216 1 0 ack 40 ------- 0 1.0 0.0 76 156
- 0.712216 1 0 ack 40 ------- 0 1.0 0.0 76 156
r 0.713048 0 1 tcp 1040 ------- 0 0.0 1.0 77 153
+ 0.713048 1 0 ack 40 ------- 0 1.0 0.0 77 157
- 0.713048 1 0 ack 40 ------- 0 1.0 0.0 77 157
r 0.71388 0 1 tcp 1040 ------- 0 0.0 1.0 78 154
+ 0.71388 1 0 ack 40 ------- 0 1.0 0.0 78 158
- 0.71388 1 0 ack 40 ------- 0 1.0 0.0 78 158
r 0.714712 0 1 tcp 1040 ------- 0 0.0 1.0 79 155
+ 0.714712 1 0 ack 40 ------- 0 1.0 0.0 79 159
- 0.714712 1 0 ack 40 ------- 0 1.0 0.0 79 159
r 0.717248 1 0 ack 40 ------- 0 1.0 0.0 76 156
+ 0.717248 0 1 tcp 1040 ------- 0 0.0 1.0 80 160
- 0.717248 0 1 tcp 1040 ------- 0 0.0 1.0 80 160
r 0.71808 1 0 ack 40 ------- 0 1.0 0.0 77 157
+ 0.71808 0 1 tcp 1040 ------- 0 0.0 1.0 81 161
- 0.71808 0 1 tcp 1040 ------- 0 0.0 1.0 81 161
r 0.718912 1 0 ack 40 ------- 0 1.0 0.0 78 158
+ 0.718912 0 1 tcp 1040 ------- 0 0.0 1.0 82 162
- 0.718912 0 1 tcp 1040 ------- 0 0.0 1.0 82 162
r 0.719744 1 0 ack 40 ------- 0 1.0 0.0 79 159
+ 0.719744 0 1 tcp 1040 ------- 0 0.0 1.0 83 163
- 0.719744 0 1 tcp 1040 ------- 0 0.0 1.0 83 163
r 0.72308 0 1 tcp 1040 ------- 0 0.0 1.0 80 160
+ 0.72308 1 0 ack 40 ------- 0 1.0 0.0 80 164
- 0.72308 1 0 ack 40 ------- 0 1.0 0.0 80 164
r 0.723912 0 1 tcp 1040 ------- 0 0.0 1.0 81 161
+ 0.723912 1 0 ack 40 ------- 0 1.0 0.0 81 165
- 0.723912 1 0 ack 40 ------- 0 1.0 0.0 81 165
r 0.724744 0 1 tcp 1040 ------- 0 0.0 1.0 82 162
+ 0.724744 1 0 ack 40 ------- 0 1.0 0.0 82 166
- 0.724744 1 0 ack 40 ------- 0 1.0 0.0 82 166
r 0.725576 0 1 tcp 1040 ------- 0 0.0 1.0 83 163
+ 0.725576 1 0 ack 40 ------- 0 1.0 0.0 83 167
- 0.725576 1 0 ack 40 ------- 0 1.0 0.0 83 167
r 0.728112 1 0 ack 40 ------- 0 1.0 0.0 80 164
+ 0.728112 0 1 tcp 1040 ------- 0 0.0 1.0 84 168
- 0.728112 0 1 tcp 1040 ------- 0 0.0 1.0 84 168
r 0.728944 1 0 ack 40 ------- 0 1.0 0.0 81 165
+ 0.728944 0 1 tcp 1040 ------- 0 0.0 1.0 85 169
- 0.728944 0 1 tcp 1040 ------- 0 0.0 1.0 85 169
r 0.729776 1 0 ack 40 ------- 0 1.0 0.0 82 166
+ 0.729776 0 1 tcp 1040 ------- 0 0.0 1.0 86 170
- 0.729776 0 1 tcp 1040 ------- 0 0.0 1.0 86 170
r 0.730608 1 0 ack 40 ------- 0 1.0 0.0 83 167
+ 0.730608 0 1 tcp 1040 ------- 0 0.0 1.0 87 171
- 0.730608 0 1 tcp 1040 ------- 0 0.0 1.0 87 171
r 0.733944 0 1 tcp 1040 ------- 0 0.0 1.0 84 168
+ 0.733944 1 0 ack 40 ------- 0 1.0 0.0 84 172
- 0.733944 1 0 ack 40 ------- 0 1.0 0.0 84 172
r 0.734776 0 1 tcp 1040 ------- 0 0.0 1.0 85 169
+ 0.734776 1 0 ack 40 ------- 0 1.0 0.0 85 173
- 0.734776 1 0 ack 40 ------- 0 1.0 0.0 85 173
r 0.735608 0 1 tcp 1040 ------- 0 0.0 1.0 86 170
+ 0.735608 1 0 ack 40 ------- 0 1.0 0.0 86 174
- 0.735608 1 0 ack 40 ------- 0 1.0 0.0 86 174
r 0.73644 0 1 tcp 1040 ------- 0 0.0 1.0 87 171
+ 0.73644 1 0 ack 40 ------- 0 1.0 0.0 87 175
- 0.73644 1 0 ack 40 ------- 0 1.0 0.0 87 175
r 0.738976 1 0 ack 40 ------- 0 1.0 0.0 84 172
+ 0.738976 0 1 tcp 1040 ------- 0 0.0 1.0 88 176
- 0.738976 0 1 tcp 1040 ------- 0 0.0 1.0 88 176
r 0.739808 1 0 ack 40 ------- 0 1.0 0.0 85 173
+ 0.739808 0 1 tcp 1040 ------- 0 0.0 1.0 89 177
- 0.739808 0 1 tcp 1040 ------- 0 0.0 1.0 89 177
r 0.74064 1 0 ack 40 ------- 0 1.0 0.0 86 174
+ 0.74064 0 1 tcp 1040 ------- 0 0.0 1.0 90 178
- 0.74064 0 1 tcp 1040 ------- 0 0.0 1.0 90 178
r 0.741472 1 0 ack 40 ------- 0 1.0 0.0 87 175
+ 0.741472 0 1 tcp 1040 ------- 0 0.0 1.0 91 179
- 0.741472 0 1 tcp 1040 ------- 0 0.0 1.0 91 179
r 0.744808 0 1 tcp 1040 ------- 0 0.0 1.0 88 176
+ 0.744808 1 0 ack 40 ------- 0 1.0 0.0 88 180
- 0.744808 1 0 ack 40 ------- 0 1.0 0.0 88 180
r 0.74564 0 1 tcp 1040 ------- 0 0.0 1.0 89 177
+ 0.74564 1 0 ack 40 ------- 0 1.0 0.0 89 181
- 0.74564 1 0 ack 40 ------- 0 1.0 0.0 89 181
r 0.746472 0 1 tcp 1040 ------- 0 0.0 1.0 90 178
+ 0.746472 1 0 ack 40 ------- 0 1.0 0.0 90 182
- 0.746472 1 0 ack 40 ------- 0 1.0 0.0 90 182
r 0.747304 0 1 tcp 1040 ------- 0 0.0 1.0 91 179
+ 0.747304 1 0 ack 40 ------- 0 1.0 0.0 91 183
- 0.747304 1 0 ack 40 ------- 0 1.0 0.0 91 183
r 0.74984 1 0 ack 40 ------- 0 1.0 0.0 88 180
+ 0.74984 0 1 tcp 1040 ------- 0 0.0 1.0 92 184
- 0.74984 0 1 tcp 1040 ------- 0 0.0 1.0 92 184
r 0.750672 1 0 ack 40 ------- 0 1.0 0.0 89 181
+ 0.750672 0 1 tcp 1040 ------- 0 0.0 1.0 93 185
- 0.750672 0 1 tcp 1040 ------- 0 0.0 1.0 93 185
r 0.751504 1 0 ack 40 ------- 0 1.0 0.0 90 182
+ 0.751504 0 1 tcp 1040 ------- 0 0.0 1.0 94 186
- 0.751504 0 1 tcp 1040 ------- 0 0.0 1.0 94 186
r 0.752336 1 0 ack 40 ------- 0 1.0 0.0 91 183
+ 0.752336 0 1 tcp 1040 ------- 0 0.0 1.0 95 187
- 0.752336 0 1 tcp 1040 ------- 0 0.0 1.0 95 187
r 0.755672 0 1 tcp 1040 ------- 0 0.0 1.0 92 184
+ 0.755672 1 0 ack 40 ------- 0 1.0 0.0 92 188
- 0.755672 1 0 ack 40 ------- 0 1.0 0.0 92 188
r 0.756504 0 1 tcp 1040 ------- 0 0.0 1.0 93 185
+ 0.756504 1 0 ack 40 ------- 0 1.0 0.0 93 189
- 0.756504 1 0 ack 40 ------- 0 1.0 0.0 93 189
r 0.757336 0 1 tcp 1040 ------- 0 0.0 1.0 94 186
+ 0.757336 1 0 ack 40 ------- 0 1.0 0.0 94 190
- 0.757336 1 0 ack 40 ------- 0 1.0 0.0 94 190
r 0.758168 0 1 tcp 1040 ------- 0 0.0 1.0 95 187
+ 0.758168 1 0 ack 40 ------- 0 1.0 0.0 95 191
- 0.758168 1 0 ack 40 ------- 0 1.0 0.0 95 191
r 0.760704 1 0 ack 40 ------- 0 1.0 0.0 92 188
+ 0.760704 0 1 tcp 1040 ------- 0 0.0 1.0 96 192
- 0.760704 0 1 tcp 1040 ------- 0 0.0 1.0 96 192
r 0.761536 1 0 ack 40 ------- 0 1.0 0.0 93 189
+ 0.761536 0 1 tcp 1040 ------- 0 0.0 1.0 97 193
- 0.761536 0 1 tcp 1040 ------- 0 0.0 1.0 97 193
r 0.762368 1 0 ack 40 ------- 0 1.0 0.0 94 190
+ 0.762368 0 1 tcp 1040 ------- 0 0.0 1.0 98 194
- 0.762368 0 1 tcp 1040 ------- 0 0.0 1.0 98 194
r 0.7632 1 0 ack 40 ------- 0 1.0 0.0 95 191
+ 0.7632 0 1 tcp 1040 ------- 0 0.0 1.0 99 195
- 0.7632 0 1 tcp 1040 ------- 0 0.0 1.0 99 195
r 0.766536 0 1 tcp 1040 ------- 0 0.0 1.0 96 192
+ 0.766536 1 0 ack 40 ------- 0 1.0 0.0 96 196
- 0.766536 1 0 ack 40 ------- 0 1.0 0.0 96 196
r 0.767368 0 1 tcp 1040 ------- 0 0.0 1.0 97 193
+ 0.767368 1 0 ack 40 ------- 0 1.0 0.0 97 197
- 0.767368 1 0 ack 40 ------- 0 1.0 0.0 97 197
r 0.7682 0 1 tcp 1040 ------- 0 0.0 1.0 98 194
+ 0.7682 1 0 ack 40 ------- 0 1.0 0.0 98 198
- 0.7682 1 0 ack 40 ------- 0 1.0 0.0 98 198
r 0.769032 0 1 tcp 1040 ------- 0 0.0 1.0 99 195
+ 0.769032 1 0 ack 40 ------- 0 1.0 0.0 99 199
- 0.769032 1 0 ack 40 ------- 0 1.0 0.0 99 199
r 0.771568 1 0 ack 40 ------- 0 1.0 0.0 96 196
+ 0.771568 0 1 tcp 1040 ------- 0 0.0 1.0 100 200
- 0.771568 0 1 tcp 1040 ------- 0 0.0 1.0 100 200
r 0.7724 1 0 ack 40 ------- 0 1.0 0.0 97 197
+ 0.7724 0 1 tcp 1040 ------- 0 0.0 1.0 101 201
- 0.7724 0 1 tcp 1040 ------- 0 0.0 1.0 101 201
r 0.773232 1 0 ack 40 ------- 0 1.0 0.0 98 198
+ 0.773232 0 1 tcp 1040 ------- 0 0.0 1.0 102 202
- 0.773232 0 1 tcp 1040 ------- 0 0.0 1.0 102 202
r 0.774064 1 0 ack 40 ------- 0 1.0 0.0 99 199
+ 0.774064 0 1 tcp 1040 ------- 0 0.0 1.0 103 203
- 0.774064 0 1 tcp 1040 ------- 0 0.0 1.0 103 203
r 0.7774 0 1 tcp 1040 ------- 0 0.0 1.0 100 200
+ 0.7774 1 0 ack 40 ------- 0 1.0 0.0 100 204
- 0.7774 1 0 ack 40 ------- 0 1.0 0.0 100 204
r 0.778232 0 1 tcp 1040 ------- 0 0.0 1.0 101 201
+ 0.778232 1 0 ack 40 ------- 0 1.0 0.0 101 205
- 0.778232 1 0 ack 40 ------- 0 1.0 0.0 101 205
r 0.779064 0 1 tcp 1040 ------- 0 0.0 1.0 102 202
+ 0.779064 1 0 ack 40 ------- 0 1.0 0.0 102 206
- 0.779064 1 0 ack 40 ------- 0 1.0 0.0 102 206
r 0.779896 0 1 tcp 1040 ------- 0 0.0 1.0 103 203
+ 0.779896 1 0 ack 40 ------- 0 1.0 0.0 103 207
- 0.779896 1 0 ack 40 ------- 0 1.0 0.0 103 207
r 0.782432 1 0 ack 40 ------- 0 1.0 0.0 100 204
+ 0.782432 0 1 tcp 1040 ------- 0 0.0 1.0 104 208
- 0.782432 0 1 tcp 1040 ------- 0 0.0 1.0 104 208
r 0.783264 1 0 ack 40 ------- 0 1.0 0.0 101 205
+ 0.783264 0 1 tcp 1040 ------- 0 0.0 1.0 105 209
- 0.783264 0 1 tcp 1040 ------- 0 0.0 1.0 105 209
r 0.784096 1 0 ack 40 ------- 0 1.0 0.0 102 206
+ 0.784096 0 1 tcp 1040 ------- 0 0.0 1.0 106 210
- 0.784096 0 1 tcp 1040 ------- 0 0.0 1.0 106 210
r 0.784928 1 0 ack 40 ------- 0 1.0 0.0 103 207
+ 0.784928 0 1 tcp 1040 ------- 0 0.0 1.0 107 211
- 0.784928 0 1 tcp 1040 ------- 0 0.0 1.0 107 211
r 0.788264 0 1 tcp 1040 ------- 0 0.0 1.0 104 208
+ 0.788264 1 0 ack 40 ------- 0 1.0 0.0 104 212
- 0.788264 1 0 ack 40 ------- 0 1.0 0.0 104 212
r 0.789096 0 1 tcp 1040 ------- 0 0.0 1.0 105 209