+ 0.5 0 1 tcp 1500 ------- 0 0.0 1.0 0 0
- 0.5 0 1 tcp 1500 ------- 0 0.0 1.0 0 0
+ 0.5 0 1 tcp 1540 ------- 0 0.0 1.0 1 1
+ 0.5 0 1 tcp 1540 ------- 0 0.0 1.0 2 2
+ 0.5 0 1 tcp 1540 ------- 0 0.0 1.0 3 3
- 0.5012 0 1 tcp 1540 ------- 0 0.0 1.0 1 1
- 0.502432 0 1 tcp 1540 ------- 0 0.0 1.0 2 2
- 0.503664 0 1 tcp 1540 ------- 0 0.0 1.0 3 3
r 0.5062 0 1 tcp 1500 ------- 0 0.0 1.0 0 0
+ 0.5062 1 0 ack 40 ------- 0 1.0 0.0 0 4
- 0.5062 1 0 ack 40 ------- 0 1.0 0.0 0 4
r 0.507432 0 1 tcp 1540 ------- 0 0.0 1.0 1 1
+ 0.507432 1 0 ack 40 ------- 0 1.0 0.0 1 5
- 0.507432 1 0 ack 40 ------- 0 1.0 0.0 1 5
r 0.508664 0 1 tcp 1540 ------- 0 0.0 1.0 2 2
+ 0.508664 1 0 ack 40 ------- 0 1.0 0.0 2 6
- 0.508664 1 0 ack 40 ------- 0 1.0 0.0 2 6
r 0.509896 0 1 tcp 1540 ------- 0 0.0 1.0 3 3
+ 0.509896 1 0 ack 40 ------- 0 1.0 0.0 3 7
- 0.509896 1 0 ack 40 ------- 0 1.0 0.0 3 7
r 0.511232 1 0 ack 40 ------- 0 1.0 0.0 0 4
+ 0.511232 0 1 tcp 1540 ------- 0 0.0 1.0 4 8
- 0.511232 0 1 tcp 1540 ------- 0 0.0 1.0 4 8
r 0.512464 1 0 ack 40 ------- 0 1.0 0.0 1 5
+ 0.512464 0 1 tcp 1540 ------- 0 0.0 1.0 5 9
- 0.512464 0 1 tcp 1540 ------- 0 0.0 1.0 5 9
r 0.513696 1 0 ack 40 ------- 0 1.0 0.0 2 6
+ 0.513696 0 1 tcp 1540 ------- 0 0.0 1.0 6 10
- 0.513696 0 1 tcp 1540 ------- 0 0.0 1.0 6 10
r 0.514928 1 0 ack 40 ------- 0 1.0 0.0 3 7
+ 0.514928 0 1 tcp 1540 ------- 0 0.0 1.0 7 11
- 0.514928 0 1 tcp 1540 ------- 0 0.0 1.0 7 11
r 0.517464 0 1 tcp 1540 ------- 0 0.0 1.0 4 8
+ 0.517464 1 0 ack 40 ------- 0 1.0 0.0 4 12
- 0.517464 1 0 ack 40 ------- 0 1.0 0.0 4 12
r 0.518696 0 1 tcp 1540 ------- 0 0.0 1.0 5 9
+ 0.518696 1 0 ack 40 ------- 0 1.0 0.0 5 13
- 0.518696 1 0 ack 40 ------- 0 1.0 0.0 5 13
r 0.519928 0 1 tcp 1540 ------- 0 0.0 1.0 6 10
+ 0.519928 1 0 ack 40 ------- 0 1.0 0.0 6 14
- 0.519928 1 0 ack 40 ------- 0 1.0 0.0 6 14
r 0.52116 0 1 tcp 1540 ------- 0 0.0 1.0 7 11
+ 0.52116 1 0 ack 40 ------- 0 1.0 0.0 7 15
- 0.52116 1 0 ack 40 ------- 0 1.0 0.0 7 15
r 0.522496 1 0 ack 40 ------- 0 1.0 0.0 4 12
+ 0.522496 0 1 tcp 1540 ------- 0 0.0 1.0 8 16
- 0.522496 0 1 tcp 1540 ------- 0 0.0 1.0 8 16
r 0.523728 1 0 ack 40 ------- 0 1.0 0.0 5 13
+ 0.523728 0 1 tcp 1540 ------- 0 0.0 1.0 9 17
- 0.523728 0 1 tcp 1540 ------- 0 0.0 1.0 9 17
r 0.52496 1 0 ack 40 ------- 0 1.0 0.0 6 14
+ 0.52496 0 1 tcp 1540 ------- 0 0.0 1.0 10 18
- 0.52496 0 1 tcp 1540 ------- 0 0.0 1.0 10 18
r 0.526192 1 0 ack 40 ------- 0 1.0 0.0 7 15
+ 0.526192 0 1 tcp 1540 ------- 0 0.0 1.0 11 19
- 0.526192 0 1 tcp 1540 ------- 0 0.0 1.0 11 19
r 0.528728 0 1 tcp 1540 ------- 0 0.0 1.0 8 16
+ 0.528728 1 0 ack 40 ------- 0 1.0 0.0 8 20
- 0.528728 1 0 ack 40 ------- 0 1.0 0.0 8 20
r 0.52996 0 1 tcp 1540 ------- 0 0.0 1.0 9 17
+ 0.52996 1 0 ack 40 ------- 0 1.0 0.0 9 21
- 0.52996 1 0 ack 40 ------- 0 1.0 0.0 9 21
r 0.531192 0 1 tcp 1540 ------- 0 0.0 1.0 10 18
+ 0.531192 1 0 ack 40 ------- 0 1.0 0.0 10 22
- 0.531192 1 0 ack 40 ------- 0 1.0 0.0 10 22
r 0.532424 0 1 tcp 1540 ------- 0 0.0 1.0 11 19
+ 0.532424 1 0 ack 40 ------- 0 1.0 0.0 11 23
- 0.532424 1 0 ack 40 ------- 0 1.0 0.0 11 23
r 0.53376 1 0 ack 40 ------- 0 1.0 0.0 8 20
+ 0.53376 0 1 tcp 1540 ------- 0 0.0 1.0 12 24
- 0.53376 0 1 tcp 1540 ------- 0 0.0 1.0 12 24
r 0.534992 1 0 ack 40 ------- 0 1.0 0.0 9 21
+ 0.534992 0 1 tcp 1540 ------- 0 0.0 1.0 13 25
- 0.534992 0 1 tcp 1540 ------- 0 0.0 1.0 13 25
r 0.536224 1 0 ack 40 ------- 0 1.0 0.0 10 22
+ 0.536224 0 1 tcp 1540 ------- 0 0.0 1.0 14 26
- 0.536224 0 1 tcp 1540 ------- 0 0.0 1.0 14 26
r 0.537456 1 0 ack 40 ------- 0 1.0 0.0 11 23
+ 0.537456 0 1 tcp 1540 ------- 0 0.0 1.0 15 27
- 0.537456 0 1 tcp 1540 ------- 0 0.0 1.0 15 27
r 0.539992 0 1 tcp 1540 ------- 0 0.0 1.0 12 24
+ 0.539992 1 0 ack 40 ------- 0 1.0 0.0 12 28
- 0.539992 1 0 ack 40 ------- 0 1.0 0.0 12 28
r 0.541224 0 1 tcp 1540 ------- 0 0.0 1.0 13 25
+ 0.541224 1 0 ack 40 ------- 0 1.0 0.0 13 29
- 0.541224 1 0 ack 40 ------- 0 1.0 0.0 13 29
r 0.542456 0 1 tcp 1540 ------- 0 0.0 1.0 14 26
+ 0.542456 1 0 ack 40 ------- 0 1.0 0.0 14 30
- 0.542456 1 0 ack 40 ------- 0 1.0 0.0 14 30
r 0.543688 0 1 tcp 1540 ------- 0 0.0 1.0 15 27
+ 0.543688 1 0 ack 40 ------- 0 1.0 0.0 15 31
- 0.543688 1 0 ack 40 ------- 0 1.0 0.0 15 31
r 0.545024 1 0 ack 40 ------- 0 1.0 0.0 12 28
+ 0.545024 0 1 tcp 1540 ------- 0 0.0 1.0 16 32
- 0.545024 0 1 tcp 1540 ------- 0 0.0 1.0 16 32
r 0.546256 1 0 ack 40 ------- 0 1.0 0.0 13 29
+ 0.546256 0 1 tcp 1540 ------- 0 0.0 1.0 17 33
- 0.546256 0 1 tcp 1540 ------- 0 0.0 1.0 17 33
r 0.547488 1 0 ack 40 ------- 0 1.0 0.0 14 30
+ 0.547488 0 1 tcp 1540 ------- 0 0.0 1.0 18 34
- 0.547488 0 1 tcp 1540 ------- 0 0.0 1.0 18 34
r 0.54872 1 0 ack 40 ------- 0 1.0 0.0 15 31
+ 0.54872 0 1 tcp 1540 ------- 0 0.0 1.0 19 35
- 0.54872 0 1 tcp 1540 ------- 0 0.0 1.0 19 35
r 0.551256 0 1 tcp 1540 ------- 0 0.0 1.0 16 32
+ 0.551256 1 0 ack 40 ------- 0 1.0 0.0 16 36
- 0.551256 1 0 ack 40 ------- 0 1.0 0.0 16 36
r 0.552488 0 1 tcp 1540 ------- 0 0.0 1.0 17 33
+ 0.552488 1 0 ack 40 ------- 0 1.0 0.0 17 37
- 0.552488 1 0 ack 40 ------- 0 1.0 0.0 17 37
r 0.55372 0 1 tcp 1540 ------- 0 0.0 1.0 18 34
+ 0.55372 1 0 ack 40 ------- 0 1.0 0.0 18 38
- 0.55372 1 0 ack 40 ------- 0 1.0 0.0 18 38
r 0.554952 0 1 tcp 1540 ------- 0 0.0 1.0 19 35
+ 0.554952 1 0 ack 40 ------- 0 1.0 0.0 19 39
- 0.554952 1 0 ack 40 ------- 0 1.0 0.0 19 39
r 0.556288 1 0 ack 40 ------- 0 1.0 0.0 16 36
+ 0.556288 0 1 tcp 1540 ------- 0 0.0 1.0 20 40
- 0.556288 0 1 tcp 1540 ------- 0 0.0 1.0 20 40
r 0.55752 1 0 ack 40 ------- 0 1.0 0.0 17 37
+ 0.55752 0 1 tcp 1540 ------- 0 0.0 1.0 21 41
- 0.55752 0 1 tcp 1540 ------- 0 0.0 1.0 21 41
r 0.558752 1 0 ack 40 ------- 0 1.0 0.0 18 38
+ 0.558752 0 1 tcp 1540 ------- 0 0.0 1.0 22 42
- 0.558752 0 1 tcp 1540 ------- 0 0.0 1.0 22 42
r 0.559984 1 0 ack 40 ------- 0 1.0 0.0 19 39
+ 0.559984 0 1 tcp 1540 ------- 0 0.0 1.0 23 43
- 0.559984 0 1 tcp 1540 ------- 0 0.0 1.0 23 43
r 0.56252 0 1 tcp 1540 ------- 0 0.0 1.0 20 40
+ 0.56252 1 0 ack 40 ------- 0 1.0 0.0 20 44
- 0.56252 1 0 ack 40 ------- 0 1.0 0.0 20 44
r 0.563752 0 1 tcp 1540 ------- 0 0.0 1.0 21 41
+ 0.563752 1 0 ack 40 ------- 0 1.0 0.0 21 45
- 0.563752 1 0 ack 40 ------- 0 1.0 0.0 21 45
r 0.564984 0 1 tcp 1540 ------- 0 0.0 1.0 22 42
+ 0.564984 1 0 ack 40 ------- 0 1.0 0.0 22 46
- 0.564984 1 0 ack 40 ------- 0 1.0 0.0 22 46
r 0.566216 0 1 tcp 1540 ------- 0 0.0 1.0 23 43
+ 0.566216 1 0 ack 40 ------- 0 1.0 0.0 23 47
- 0.566216 1 0 ack 40 ------- 0 1.0 0.0 23 47
r 0.567552 1 0 ack 40 ------- 0 1.0 0.0 20 44
+ 0.567552 0 1 tcp 1540 ------- 0 0.0 1.0 24 48
- 0.567552 0 1 tcp 1540 ------- 0 0.0 1.0 24 48
r 0.568784 1 0 ack 40 ------- 0 1.0 0.0 21 45
+ 0.568784 0 1 tcp 1540 ------- 0 0.0 1.0 25 49
- 0.568784 0 1 tcp 1540 ------- 0 0.0 1.0 25 49
r 0.570016 1 0 ack 40 ------- 0 1.0 0.0 22 46
+ 0.570016 0 1 tcp 1540 ------- 0 0.0 1.0 26 50
- 0.570016 0 1 tcp 1540 ------- 0 0.0 1.0 26 50
r 0.571248 1 0 ack 40 ------- 0 1.0 0.0 23 47
+ 0.571248 0 1 tcp 1540 ------- 0 0.0 1.0 27 51
- 0.571248 0 1 tcp 1540 ------- 0 0.0 1.0 27 51
r 0.573784 0 1 tcp 1540 ------- 0 0.0 1.0 24 48
+ 0.573784 1 0 ack 40 ------- 0 1.0 0.0 24 52
- 0.573784 1 0 ack 40 ------- 0 1.0 0.0 24 52
r 0.575016 0 1 tcp 1540 ------- 0 0.0 1.0 25 49
+ 0.575016 1 0 ack 40 ------- 0 1.0 0.0 25 53
- 0.575016 1 0 ack 40 ------- 0 1.0 0.0 25 53
r 0.576248 0 1 tcp 1540 ------- 0 0.0 1.0 26 50
+ 0.576248 1 0 ack 40 ------- 0 1.0 0.0 26 54
- 0.576248 1 0 ack 40 ------- 0 1.0 0.0 26 54
r 0.57748 0 1 tcp 1540 ------- 0 0.0 1.0 27 51
+ 0.57748 1 0 ack 40 ------- 0 1.0 0.0 27 55
- 0.57748 1 0 ack 40 ------- 0 1.0 0.0 27 55
r 0.578816 1 0 ack 40 ------- 0 1.0 0.0 24 52
+ 0.578816 0 1 tcp 1540 ------- 0 0.0 1.0 28 56
- 0.578816 0 1 tcp 1540 ------- 0 0.0 1.0 28 56
r 0.580048 1 0 ack 40 ------- 0 1.0 0.0 25 53
+ 0.580048 0 1 tcp 1540 ------- 0 0.0 1.0 29 57
- 0.580048 0 1 tcp 1540 ------- 0 0.0 1.0 29 57
r 0.58128 1 0 ack 40 ------- 0 1.0 0.0 26 54
+ 0.58128 0 1 tcp 1540 ------- 0 0.0 1.0 30 58
- 0.58128 0 1 tcp 1540 ------- 0 0.0 1.0 30 58
r 0.582512 1 0 ack 40 ------- 0 1.0 0.0 27 55
+ 0.582512 0 1 tcp 1540 ------- 0 0.0 1.0 31 59
- 0.582512 0 1 tcp 1540 ------- 0 0.0 1.0 31 59
r 0.585048 0 1 tcp 1540 ------- 0 0.0 1.0 28 56
+ 0.585048 1 0 ack 40 ------- 0 1.0 0.0 28 60
- 0.585048 1 0 ack 40 ------- 0 1.0 0.0 28 60
r 0.58628 0 1 tcp 1540 ------- 0 0.0 1.0 29 57
+ 0.58628 1 0 ack 40 ------- 0 1.0 0.0 29 61
- 0.58628 1 0 ack 40 ------- 0 1.0 0.0 29 61
r 0.587512 0 1 tcp 1540 ------- 0 0.0 1.0 30 58
+ 0.587512 1 0 ack 40 ------- 0 1.0 0.0 30 62
- 0.587512 1 0 ack 40 ------- 0 1.0 0.0 30 62
r 0.588744 0 1 tcp 1540 ------- 0 0.0 1.0 31 59
+ 0.588744 1 0 ack 40 ------- 0 1.0 0.0 31 63
- 0.588744 1 0 ack 40 ------- 0 1.0 0.0 31 63
r 0.59008 1 0 ack 40 ------- 0 1.0 0.0 28 60
+ 0.59008 0 1 tcp 1540 ------- 0 0.0 1.0 32 64
- 0.59008 0 1 tcp 1540 ------- 0 0.0 1.0 32 64
r 0.591312 1 0 ack 40 ------- 0 1.0 0.0 29 61
+ 0.591312 0 1 tcp 1540 ------- 0 0.0 1.0 33 65
- 0.591312 0 1 tcp 1540 ------- 0 0.0 1.0 33 65
r 0.592544 1 0 ack 40 ------- 0 1.0 0.0 30 62
+ 0.592544 0 1 tcp 1540 ------- 0 0.0 1.0 34 66
- 0.592544 0 1 tcp 1540 ------- 0 0.0 1.0 34 66
r 0.593776 1 0 ack 40 ------- 0 1.0 0.0 31 63
+ 0.593776 0 1 tcp 1540 ------- 0 0.0 1.0 35 67
- 0.593776 0 1 tcp 1540 ------- 0 0.0 1.0 35 67
r 0.596312 0 1 tcp 1540 ------- 0 0.0 1.0 32 64
+ 0.596312 1 0 ack 40 ------- 0 1.0 0.0 32 68
- 0.596312 1 0 ack 40 ------- 0 1.0 0.0 32 68
r 0.597544 0 1 tcp 1540 ------- 0 0.0 1.0 33 65
+ 0.597544 1 0 ack 40 ------- 0 1.0 0.0 33 69
- 0.597544 1 0 ack 40 ------- 0 1.0 0.0 33 69
r 0.598776 0 1 tcp 1540 ------- 0 0.0 1.0 34 66
+ 0.598776 1 0 ack 40 ------- 0 1.0 0.0 34 70
- 0.598776 1 0 ack 40 ------- 0 1.0 0.0 34 70
r 0.600008 0 1 tcp 1540 ------- 0 0.0 1.0 35 67
+ 0.600008 1 0 ack 40 ------- 0 1.0 0.0 35 71
- 0.600008 1 0 ack 40 ------- 0 1.0 0.0 35 71
r 0.601344 1 0 ack 40 ------- 0 1.0 0.0 32 68
+ 0.601344 0 1 tcp 1540 ------- 0 0.0 1.0 36 72
- 0.601344 0 1 tcp 1540 ------- 0 0.0 1.0 36 72
r 0.602576 1 0 ack 40 ------- 0 1.0 0.0 33 69
+ 0.602576 0 1 tcp 1540 ------- 0 0.0 1.0 37 73
- 0.602576 0 1 tcp 1540 ------- 0 0.0 1.0 37 73
r 0.603808 1 0 ack 40 ------- 0 1.0 0.0 34 70
+ 0.603808 0 1 tcp 1540 ------- 0 0.0 1.0 38 74
- 0.603808 0 1 tcp 1540 ------- 0 0.0 1.0 38 74
r 0.60504 1 0 ack 40 ------- 0 1.0 0.0 35 71
+ 0.60504 0 1 tcp 1540 ------- 0 0.0 1.0 39 75
- 0.60504 0 1 tcp 1540 ------- 0 0.0 1.0 39 75
r 0.607576 0 1 tcp 1540 ------- 0 0.0 1.0 36 72
+ 0.607576 1 0 ack 40 ------- 0 1.0 0.0 36 76
- 0.607576 1 0 ack 40 ------- 0 1.0 0.0 36 76
r 0.608808 0 1 tcp 1540 ------- 0 0.0 1.0 37 73
+ 0.608808 1 0 ack 40 ------- 0 1.0 0.0 37 77
- 0.608808 1 0 ack 40 ------- 0 1.0 0.0 37 77
r 0.61004 0 1 tcp 1540 ------- 0 0.0 1.0 38 74
+ 0.61004 1 0 ack 40 ------- 0 1.0 0.0 38 78
- 0.61004 1 0 ack 40 ------- 0 1.0 0.0 38 78
r 0.611272 0 1 tcp 1540 ------- 0 0.0 1.0 39 75
+ 0.611272 1 0 ack 40 ------- 0 1.0 0.0 39 79
- 0.611272 1 0 ack 40 ------- 0 1.0 0.0 39 79
r 0.612608 1 0 ack 40 ------- 0 1.0 0.0 36 76
+ 0.612608 0 1 tcp 1540 ------- 0 0.0 1.0 40 80
- 0.612608 0 1 tcp 1540 ------- 0 0.0 1.0 40 80
r 0.61384 1 0 ack 40 ------- 0 1.0 0.0 37 77
+ 0.61384 0 1 tcp 1540 ------- 0 0.0 1.0 41 81
- 0.61384 0 1 tcp 1540 ------- 0 0.0 1.0 41 81
r 0.615072 1 0 ack 40 ------- 0 1.0 0.0 38 78
+ 0.615072 0 1 tcp 1540 ------- 0 0.0 1.0 42 82
- 0.615072 0 1 tcp 1540 ------- 0 0.0 1.0 42 82
r 0.616304 1 0 ack 40 ------- 0 1.0 0.0 39 79
+ 0.616304 0 1 tcp 1540 ------- 0 0.0 1.0 43 83
- 0.616304 0 1 tcp 1540 ------- 0 0.0 1.0 43 83
r 0.61884 0 1 tcp 1540 ------- 0 0.0 1.0 40 80
+ 0.61884 1 0 ack 40 ------- 0 1.0 0.0 40 84
- 0.61884 1 0 ack 40 ------- 0 1.0 0.0 40 84
r 0.620072 0 1 tcp 1540 ------- 0 0.0 1.0 41 81
+ 0.620072 1 0 ack 40 ------- 0 1.0 0.0 41 85
- 0.620072 1 0 ack 40 ------- 0 1.0 0.0 41 85
r 0.621304 0 1 tcp 1540 ------- 0 0.0 1.0 42 82
+ 0.621304 1 0 ack 40 ------- 0 1.0 0.0 42 86
- 0.621304 1 0 ack 40 ------- 0 1.0 0.0 42 86
r 0.622536 0 1 tcp 1540 ------- 0 0.0 1.0 43 83
+ 0.622536 1 0 ack 40 ------- 0 1.0 0.0 43 87
- 0.622536 1 0 ack 40 ------- 0 1.0 0.0 43 87
r 0.623872 1 0 ack 40 ------- 0 1.0 0.0 40 84
+ 0.623872 0 1 tcp 1540 ------- 0 0.0 1.0 44 88
- 0.623872 0 1 tcp 1540 ------- 0 0.0 1.0 44 88
r 0.625104 1 0 ack 40 ------- 0 1.0 0.0 41 85
+ 0.625104 0 1 tcp 1540 ------- 0 0.0 1.0 45 89
- 0.625104 0 1 tcp 1540 ------- 0 0.0 1.0 45 89
r 0.626336 1 0 ack 40 ------- 0 1.0 0.0 42 86
+ 0.626336 0 1 tcp 1540 ------- 0 0.0 1.0 46 90
- 0.626336 0 1 tcp 1540 ------- 0 0.0 1.0 46 90
r 0.627568 1 0 ack 40 ------- 0 1.0 0.0 43 87
+ 0.627568 0 1 tcp 1540 ------- 0 0.0 1.0 47 91
- 0.627568 0 1 tcp 1540 ------- 0 0.0 1.0 47 91
r 0.630104 0 1 tcp 1540 ------- 0 0.0 1.0 44 88
+ 0.630104 1 0 ack 40 ------- 0 1.0 0.0 44 92
- 0.630104 1 0 ack 40 ------- 0 1.0 0.0 44 92
r 0.631336 0 1 tcp 1540 ------- 0 0.0 1.0 45 89
+ 0.631336 1 0 ack 40 ------- 0 1.0 0.0 45 93
- 0.631336 1 0 ack 40 ------- 0 1.0 0.0 45 93
r 0.632568 0 1 tcp 1540 ------- 0 0.0 1.0 46 90
+ 0.632568 1 0 ack 40 ------- 0 1.0 0.0 46 94
- 0.632568 1 0 ack 40 ------- 0 1.0 0.0 46 94
r 0.6338 0 1 tcp 1540 ------- 0 0.0 1.0 47 91
+ 0.6338 1 0 ack 40 ------- 0 1.0 0.0 47 95
- 0.6338 1 0 ack 40 ------- 0 1.0 0.0 47 95
r 0.635136 1 0 ack 40 ------- 0 1.0 0.0 44 92
+ 0.635136 0 1 tcp 1540 ------- 0 0.0 1.0 48 96
- 0.635136 0 1 tcp 1540 ------- 0 0.0 1.0 48 96
r 0.636368 1 0 ack 40 ------- 0 1.0 0.0 45 93
+ 0.636368 0 1 tcp 1540 ------- 0 0.0 1.0 49 97
- 0.636368 0 1 tcp 1540 ------- 0 0.0 1.0 49 97
r 0.6376 1 0 ack 40 ------- 0 1.0 0.0 46 94
+ 0.6376 0 1 tcp 1540 ------- 0 0.0 1.0 50 98
- 0.6376 0 1 tcp 1540 ------- 0 0.0 1.0 50 98
r 0.638832 1 0 ack 40 ------- 0 1.0 0.0 47 95
+ 0.638832 0 1 tcp 1540 ------- 0 0.0 1.0 51 99
- 0.638832 0 1 tcp 1540 ------- 0 0.0 1.0 51 99
r 0.641368 0 1 tcp 1540 ------- 0 0.0 1.0 48 96
+ 0.641368 1 0 ack 40 ------- 0 1.0 0.0 48 100
- 0.641368 1 0 ack 40 ------- 0 1.0 0.0 48 100
r 0.6426 0 1 tcp 1540 ------- 0 0.0 1.0 49 97
+ 0.6426 1 0 ack 40 ------- 0 1.0 0.0 49 101
- 0.6426 1 0 ack 40 ------- 0 1.0 0.0 49 101
r 0.643832 0 1 tcp 1540 ------- 0 0.0 1.0 50 98
+ 0.643832 1 0 ack 40 ------- 0 1.0 0.0 50 102
- 0.643832 1 0 ack 40 ------- 0 1.0 0.0 50 102
r 0.645064 0 1 tcp 1540 ------- 0 0.0 1.0 51 99
+ 0.645064 1 0 ack 40 ------- 0 1.0 0.0 51 103
- 0.645064 1 0 ack 40 ------- 0 1.0 0.0 51 103
r 0.6464 1 0 ack 40 ------- 0 1.0 0.0 48 100
+ 0.6464 0 1 tcp 1540 ------- 0 0.0 1.0 52 104
- 0.6464 0 1 tcp 1540 ------- 0 0.0 1.0 52 104
r 0.647632 1 0 ack 40 ------- 0 1.0 0.0 49 101
+ 0.647632 0 1 tcp 1540 ------- 0 0.0 1.0 53 105
- 0.647632 0 1 tcp 1540 ------- 0 0.0 1.0 53 105
r 0.648864 1 0 ack 40 ------- 0 1.0 0.0 50 102
+ 0.648864 0 1 tcp 1540 ------- 0 0.0 1.0 54 106
- 0.648864 0 1 tcp 1540 ------- 0 0.0 1.0 54 106
r 0.650096 1 0 ack 40 ------- 0 1.0 0.0 51 103
+ 0.650096 0 1 tcp 1540 ------- 0 0.0 1.0 55 107
- 0.650096 0 1 tcp 1540 ------- 0 0.0 1.0 55 107
r 0.652632 0 1 tcp 1540 ------- 0 0.0 1.0 52 104
+ 0.652632 1 0 ack 40 ------- 0 1.0 0.0 52 108
- 0.652632 1 0 ack 40 ------- 0 1.0 0.0 52 108
r 0.653864 0 1 tcp 1540 ------- 0 0.0 1.0 53 105
+ 0.653864 1 0 ack 40 ------- 0 1.0 0.0 53 109
- 0.653864 1 0 ack 40 ------- 0 1.0 0.0 53 109
r 0.655096 0 1 tcp 1540 ------- 0 0.0 1.0 54 106
+ 0.655096 1 0 ack 40 ------- 0 1.0 0.0 54 110
- 0.655096 1 0 ack 40 ------- 0 1.0 0.0 54 110
r 0.656328 0 1 tcp 1540 ------- 0 0.0 1.0 55 107
+ 0.656328 1 0 ack 40 ------- 0 1.0 0.0 55 111
- 0.656328 1 0 ack 40 ------- 0 1.0 0.0 55 111
r 0.657664 1 0 ack 40 ------- 0 1.0 0.0 52 108
+ 0.657664 0 1 tcp 1540 ------- 0 0.0 1.0 56 112
- 0.657664 0 1 tcp 1540 ------- 0 0.0 1.0 56 112
r 0.658896 1 0 ack 40 ------- 0 1.0 0.0 53 109
+ 0.658896 0 1 tcp 1540 ------- 0 0.0 1.0 57 113
- 0.658896 0 1 tcp 1540 ------- 0 0.0 1.0 57 113
r 0.660128 1 0 ack 40 ------- 0 1.0 0.0 54 110
+ 0.660128 0 1 tcp 1540 ------- 0 0.0 1.0 58 114
- 0.660128 0 1 tcp 1540 ------- 0 0.0 1.0 58 114
r 0.66136 1 0 ack 40 ------- 0 1.0 0.0 55 111
+ 0.66136 0 1 tcp 1540 ------- 0 0.0 1.0 59 115
- 0.66136 0 1 tcp 1540 ------- 0 0.0 1.0 59 115
r 0.663896 0 1 tcp 1540 ------- 0 0.0 1.0 56 112
+ 0.663896 1 0 ack 40 ------- 0 1.0 0.0 56 116
- 0.663896 1 0 ack 40 ------- 0 1.0 0.0 56 116
r 0.665128 0 1 tcp 1540 ------- 0 0.0 1.0 57 113
+ 0.665128 1 0 ack 40 ------- 0 1.0 0.0 57 117
- 0.665128 1 0 ack 40 ------- 0 1.0 0.0 57 117
r 0.66636 0 1 tcp 1540 ------- 0 0.0 1.0 58 114
+ 0.66636 1 0 ack 40 ------- 0 1.0 0.0 58 118
- 0.66636 1 0 ack 40 ------- 0 1.0 0.0 58 118
r 0.667592 0 1 tcp 1540 ------- 0 0.0 1.0 59 115
+ 0.667592 1 0 ack 40 ------- 0 1.0 0.0 59 119
- 0.667592 1 0 ack 40 ------- 0 1.0 0.0 59 119
r 0.668928 1 0 ack 40 ------- 0 1.0 0.0 56 116
+ 0.668928 0 1 tcp 1540 ------- 0 0.0 1.0 60 120
- 0.668928 0 1 tcp 1540 ------- 0 0.0 1.0 60 120
r 0.67016 1 0 ack 40 ------- 0 1.0 0.0 57 117
+ 0.67016 0 1 tcp 1540 ------- 0 0.0 1.0 61 121
- 0.67016 0 1 tcp 1540 ------- 0 0.0 1.0 61 121
r 0.671392 1 0 ack 40 ------- 0 1.0 0.0 58 118
+ 0.671392 0 1 tcp 1540 ------- 0 0.0 1.0 62 122
- 0.671392 0 1 tcp 1540 ------- 0 0.0 1.0 62 122
r 0.672624 1 0 ack 40 ------- 0 1.0 0.0 59 119
+ 0.672624 0 1 tcp 1540 ------- 0 0.0 1.0 63 123
- 0.672624 0 1 tcp 1540 ------- 0 0.0 1.0 63 123
r 0.67516 0 1 tcp 1540 ------- 0 0.0 1.0 60 120
+ 0.67516 1 0 ack 40 ------- 0 1.0 0.0 60 124
- 0.67516 1 0 ack 40 ------- 0 1.0 0.0 60 124
r 0.676392 0 1 tcp 1540 ------- 0 0.0 1.0 61 121
+ 0.676392 1 0 ack 40 ------- 0 1.0 0.0 61 125
- 0.676392 1 0 ack 40 ------- 0 1.0 0.0 61 125
r 0.677624 0 1 tcp 1540 ------- 0 0.0 1.0 62 122
+ 0.677624 1 0 ack 40 ------- 0 1.0 0.0 62 126
- 0.677624 1 0 ack 40 ------- 0 1.0 0.0 62 126
r 0.678856 0 1 tcp 1540 ------- 0 0.0 1.0 63 123
+ 0.678856 1 0 ack 40 ------- 0 1.0 0.0 63 127
- 0.678856 1 0 ack 40 ------- 0 1.0 0.0 63 127
r 0.680192 1 0 ack 40 ------- 0 1.0 0.0 60 124
+ 0.680192 0 1 tcp 1540 ------- 0 0.0 1.0 64 128
- 0.680192 0 1 tcp 1540 ------- 0 0.0 1.0 64 128
r 0.681424 1 0 ack 40 ------- 0 1.0 0.0 61 125
+ 0.681424 0 1 tcp 1540 ------- 0 0.0 1.0 65 129
- 0.681424 0 1 tcp 1540 ------- 0 0.0 1.0 65 129
r 0.682656 1 0 ack 40 ------- 0 1.0 0.0 62 126
+ 0.682656 0 1 tcp 1540 ------- 0 0.0 1.0 66 130
- 0.682656 0 1 tcp 1540 ------- 0 0.0 1.0 66 130
r 0.683888 1 0 ack 40 ------- 0 1.0 0.0 63 127
+ 0.683888 0 1 tcp 1540 ------- 0 0.0 1.0 67 131
- 0.683888 0 1 tcp 1540 ------- 0 0.0 1.0 67 131
r 0.686424 0 1 tcp 1540 ------- 0 0.0 1.0 64 128
+ 0.686424 1 0 ack 40 ------- 0 1.0 0.0 64 132
- 0.686424 1 0 ack 40 ------- 0 1.0 0.0 64 132
r 0.687656 0 1 tcp 1540 ------- 0 0.0 1.0 65 129
+ 0.687656 1 0 ack 40 ------- 0 1.0 0.0 65 133
- 0.687656 1 0 ack 40 ------- 0 1.0 0.0 65 133
r 0.688888 0 1 tcp 1540 ------- 0 0.0 1.0 66 130
+ 0.688888 1 0 ack 40 ------- 0 1.0 0.0 66 134
- 0.688888 1 0 ack 40 ------- 0 1.0 0.0 66 134
r 0.69012 0 1 tcp 1540 ------- 0 0.0 1.0 67 131
+ 0.69012 1 0 ack 40 ------- 0 1.0 0.0 67 135
- 0.69012 1 0 ack 40 ------- 0 1.0 0.0 67 135
r 0.691456 1 0 ack 40 ------- 0 1.0 0.0 64 132
+ 0.691456 0 1 tcp 1540 ------- 0 0.0 1.0 68 136
- 0.691456 0 1 tcp 1540 ------- 0 0.0 1.0 68 136
r 0.692688 1 0 ack 40 ------- 0 1.0 0.0 65 133
+ 0.692688 0 1 tcp 1540 ------- 0 0.0 1.0 69 137
- 0.692688 0 1 tcp 1540 ------- 0 0.0 1.0 69 137
r 0.69392 1 0 ack 40 ------- 0 1.0 0.0 66 134
+ 0.69392 0 1 tcp 1540 ------- 0 0.0 1.0 70 138
- 0.69392 0 1 tcp 1540 ------- 0 0.0 1.0 70 138
r 0.695152 1 0 ack 40 ------- 0 1.0 0.0 67 135
+ 0.695152 0 1 tcp 1540 ------- 0 0.0 1.0 71 139
- 0.695152 0 1 tcp 1540 ------- 0 0.0 1.0 71 139
r 0.697688 0 1 tcp 1540 ------- 0 0.0 1.0 68 136
+ 0.697688 1 0 ack 40 ------- 0 1.0 0.0 68 140
- 0.697688 1 0 ack 40 ------- 0 1.0 0.0 68 140
r 0.69892 0 1 tcp 1540 ------- 0 0.0 1.0 69 137
+ 0.69892 1 0 ack 40 ------- 0 1.0 0.0 69 141
- 0.69892 1 0 ack 40 ------- 0 1.0 0.0 69 141
r 0.700152 0 1 tcp 1540 ------- 0 0.0 1.0 70 138
+ 0.700152 1 0 ack 40 ------- 0 1.0 0.0 70 142
- 0.700152 1 0 ack 40 ------- 0 1.0 0.0 70 142
r 0.701384 0 1 tcp 1540 ------- 0 0.0 1.0 71 139
+ 0.701384 1 0 ack 40 ------- 0 1.0 0.0 71 143
- 0.701384 1 0 ack 40 ------- 0 1.0 0.0 71 143
r 0.70272 1 0 ack 40 ------- 0 1.0 0.0 68 140
+ 0.70272 0 1 tcp 1540 ------- 0 0.0 1.0 72 144
- 0.70272 0 1 tcp 1540 ------- 0 0.0 1.0 72 144
r 0.703952 1 0 ack 40 ------- 0 1.0 0.0 69 141
+ 0.703952 0 1 tcp 1540 ------- 0 0.0 1.0 73 145
- 0.703952 0 1 tcp 1540 ------- 0 0.0 1.0 73 145
r 0.705184 1 0 ack 40 ------- 0 1.0 0.0 70 142
+ 0.705184 0 1 tcp 1540 ------- 0 0.0 1.0 74 146
- 0.705184 0 1 tcp 1540 ------- 0 0.0 1.0 74 146
r 0.706416 1 0 ack 40 ------- 0 1.0 0.0 71 143
+ 0.706416 0 1 tcp 1540 ------- 0 0.0 1.0 75 147
- 0.706416 0 1 tcp 1540 ------- 0 0.0 1.0 75 147
r 0.708952 0 1 tcp 1540 ------- 0 0.0 1.0 72 144
+ 0.708952 1 0 ack 40 ------- 0 1.0 0.0 72 148
- 0.708952 1 0 ack 40 ------- 0 1.0 0.0 72 148
r 0.710184 0 1 tcp 1540 ------- 0 0.0 1.0 73 145
+ 0.710184 1 0 ack 40 ------- 0 1.0 0.0 73 149
- 0.710184 1 0 ack 40 ------- 0 1.0 0.0 73 149
r 0.711416 0 1 tcp 1540 ------- 0 0.0 1.0 74 146
+ 0.711416 1 0 ack 40 ------- 0 1.0 0.0 74 150
- 0.711416 1 0 ack 40 ------- 0 1.0 0.0 74 150
r 0.712648 0 1 tcp 1540 ------- 0 0.0 1.0 75 147
+ 0.712648 1 0 ack 40 ------- 0 1.0 0.0 75 151
- 0.712648 1 0 ack 40 ------- 0 1.0 0.0 75 151
r 0.713984 1 0 ack 40 ------- 0 1.0 0.0 72 148
+ 0.713984 0 1 tcp 1540 ------- 0 0.0 1.0 76 152
- 0.713984 0 1 tcp 1540 ------- 0 0.0 1.0 76 152
r 0.715216 1 0 ack 40 ------- 0 1.0 0.0 73 149
+ 0.715216 0 1 tcp 1540 ------- 0 0.0 1.0 77 153
- 0.715216 0 1 tcp 1540 ------- 0 0.0 1.0 77 153
r 0.716448 1 0 ack 40 ------- 0 1.0 0.0 74 150
+ 0.716448 0 1 tcp 1540 ------- 0 0.0 1.0 78 154
- 0.716448 0 1 tcp 1540 ------- 0 0.0 1.0 78 154
r 0.71768 1 0 ack 40 ------- 0 1.0 0.0 75 151
+ 0.71768 0 1 tcp 1540 ------- 0 0.0 1.0 79 155
- 0.71768 0 1 tcp 1540 ------- 0 0.0 1.0 79 155
r 0.720216 0 1 tcp 1540 ------- 0 0.0 1.0 76 152
+ 0.720216 1 0 ack 40 ------- 0 1.0 0.0 76 156
- 0.720216 1 0 ack 40 ------- 0 1.0 0.0 76 156
r 0.721448 0 1 tcp 1540 ------- 0 0.0 1.0 77 153
+ 0.721448 1 0 ack 40 ------- 0 1.0 0.0 77 157
- 0.721448 1 0 ack 40 ------- 0 1.0 0.0 77 157
r 0.72268 0 1 tcp 1540 ------- 0 0.0 1.0 78 154
+ 0.72268 1 0 ack 40 ------- 0 1.0 0.0 78 158
- 0.72268 1 0 ack 40 ------- 0 1.0 0.0 78 158
r 0.723912 0 1 tcp 1540 ------- 0 0.0 1.0 79 155
+ 0.723912 1 0 ack 40 ------- 0 1.0 0.0 79 159
- 0.723912 1 0 ack 40 ------- 0 1.0 0.0 79 159
r 0.725248 1 0 ack 40 ------- 0 1.0 0.0 76 156
+ 0.725248 0 1 tcp 1540 ------- 0 0.0 1.0 80 160
- 0.725248 0 1 tcp 1540 ------- 0 0.0 1.0 80 160
r 0.72648 1 0 ack 40 ------- 0 1.0 0.0 77 157
+ 0.72648 0 1 tcp 1540 ------- 0 0.0 1.0 81 161
- 0.72648 0 1 tcp 1540 ------- 0 0.0 1.0 81 161
r 0.727712 1 0 ack 40 ------- 0 1.0 0.0 78 158
+ 0.727712 0 1 tcp 1540 ------- 0 0.0 1.0 82 162
- 0.727712 0 1 tcp 1540 ------- 0 0.0 1.0 82 162
r 0.728944 1 0 ack 40 ------- 0 1.0 0.0 79 159
+ 0.728944 0 1 tcp 1540 ------- 0 0.0 1.0 83 163
- 0.728944 0 1 tcp 1540 ------- 0 0.0 1.0 83 163
r 0.73148 0 1 tcp 1540 ------- 0 0.0 1.0 80 160
+ 0.73148 1 0 ack 40 ------- 0 1.0 0.0 80 164
- 0.73148 1 0 ack 40 ------- 0 1.0 0.0 80 164
r 0.732712 0 1 tcp 1540 ------- 0 0.0 1.0 81 161
+ 0.732712 1 0 ack 40 ------- 0 1.0 0.0 81 165
- 0.732712 1 0 ack 40 ------- 0 1.0 0.0 81 165
r 0.733944 0 1 tcp 1540 ------- 0 0.0 1.0 82 162
+ 0.733944 1 0 ack 40 ------- 0 1.0 0.0 82 166
- 0.733944 1 0 ack 40 ------- 0 1.0 0.0 82 166
r 0.735176 0 1 tcp 1540 ------- 0 0.0 1.0 83 163
+ 0.735176 1 0 ack 40 ------- 0 1.0 0.0 83 167
- 0.735176 1 0 ack 40 ------- 0 1.0 0.0 83 167
r 0.736512 1 0 ack 40 ------- 0 1.0 0.0 80 164
+ 0.736512 0 1 tcp 1540 ------- 0 0.0 1.0 84 168
- 0.736512 0 1 tcp 1540 ------- 0 0.0 1.0 84 168
r 0.737744 1 0 ack 40 ------- 0 1.0 0.0 81 165
+ 0.737744 0 1 tcp 1540 ------- 0 0.0 1.0 85 169
- 0.737744 0 1 tcp 1540 ------- 0 0.0 1.0 85 169
r 0.738976 1 0 ack 40 ------- 0 1.0 0.0 82 166
+ 0.738976 0 1 tcp 1540 ------- 0 0.0 1.0 86 170
- 0.738976 0 1 tcp 1540 ------- 0 0.0 1.0 86 170
r 0.740208 1 0 ack 40 ------- 0 1.0 0.0 83 167
+ 0.740208 0 1 tcp 1540 ------- 0 0.0 1.0 87 171
- 0.740208 0 1 tcp 1540 ------- 0 0.0 1.0 87 171
r 0.742744 0 1 tcp 1540 ------- 0 0.0 1.0 84 168
+ 0.742744 1 0 ack 40 ------- 0 1.0 0.0 84 172
- 0.742744 1 0 ack 40 ------- 0 1.0 0.0 84 172
r 0.743976 0 1 tcp 1540 ------- 0 0.0 1.0 85 169
+ 0.743976 1 0 ack 40 ------- 0 1.0 0.0 85 173
- 0.743976 1 0 ack 40 ------- 0 1.0 0.0 85 173
r 0.745208 0 1 tcp 1540 ------- 0 0.0 1.0 86 170
+ 0.745208 1 0 ack 40 ------- 0 1.0 0.0 86 174
- 0.745208 1 0 ack 40 ------- 0 1.0 0.0 86 174
r 0.74644 0 1 tcp 1540 ------- 0 0.0 1.0 87 171
+ 0.74644 1 0 ack 40 ------- 0 1.0 0.0 87 175
- 0.74644 1 0 ack 40 ------- 0 1.0 0.0 87 175
r 0.747776 1 0 ack 40 ------- 0 1.0 0.0 84 172
+ 0.747776 0 1 tcp 1540 ------- 0 0.0 1.0 88 176
- 0.747776 0 1 tcp 1540 ------- 0 0.0 1.0 88 176
r 0.749008 1 0 ack 40 ------- 0 1.0 0.0 85 173
+ 0.749008 0 1 tcp 1540 ------- 0 0.0 1.0 89 177
- 0.749008 0 1 tcp 1540 ------- 0 0.0 1.0 89 177
r 0.75024 1 0 ack 40 ------- 0 1.0 0.0 86 174
+ 0.75024 0 1 tcp 1540 ------- 0 0.0 1.0 90 178
- 0.75024 0 1 tcp 1540 ------- 0 0.0 1.0 90 178
r 0.751472 1 0 ack 40 ------- 0 1.0 0.0 87 175
+ 0.751472 0 1 tcp 1540 ------- 0 0.0 1.0 91 179
- 0.751472 0 1 tcp 1540 ------- 0 0.0 1.0 91 179
r 0.754008 0 1 tcp 1540 ------- 0 0.0 1.0 88 176
+ 0.754008 1 0 ack 40 ------- 0 1.0 0.0 88 180
- 0.754008 1 0 ack 40 ------- 0 1.0 0.0 88 180
r 0.75524 0 1 tcp 1540 ------- 0 0.0 1.0 89 177
+ 0.75524 1 0 ack 40 ------- 0 1.0 0.0 89 181
- 0.75524 1 0 ack 40 ------- 0 1.0 0.0 89 181
r 0.756472 0 1 tcp 1540 ------- 0 0.0 1.0 90 178
+ 0.756472 1 0 ack 40 ------- 0 1.0 0.0 90 182
- 0.756472 1 0 ack 40 ------- 0 1.0 0.0 90 182
r 0.757704 0 1 tcp 1540 ------- 0 0.0 1.0 91 179
+ 0.757704 1 0 ack 40 ------- 0 1.0 0.0 91 183
- 0.757704 1 0 ack 40 ------- 0 1.0 0.0 91 183
r 0.75904 1 0 ack 40 ------- 0 1.0 0.0 88 180
+ 0.75904 0 1 tcp 1540 ------- 0 0.0 1.0 92 184
- 0.75904 0 1 tcp 1540 ------- 0 0.0 1.0 92 184
r 0.760272 1 0 ack 40 ------- 0 1.0 0.0 89 181
+ 0.760272 0 1 tcp 1540 ------- 0 0.0 1.0 93 185
- 0.760272 0 1 tcp 1540 ------- 0 0.0 1.0 93 185
r 0.761504 1 0 ack 40 ------- 0 1.0 0.0 90 182
+ 0.761504 0 1 tcp 1540 ------- 0 0.0 1.0 94 186
- 0.761504 0 1 tcp 1540 ------- 0 0.0 1.0 94 186
r 0.762736 1 0 ack 40 ------- 0 1.0 0.0 91 183
+ 0.762736 0 1 tcp 1540 ------- 0 0.0 1.0 95 187
- 0.762736 0 1 tcp 1540 ------- 0 0.0 1.0 95 187
r 0.765272 0 1 tcp 1540 ------- 0 0.0 1.0 92 184
+ 0.765272 1 0 ack 40 ------- 0 1.0 0.0 92 188
- 0.765272 1 0 ack 40 ------- 0 1.0 0.0 92 188
r 0.766504 0 1 tcp 1540 ------- 0 0.0 1.0 93 185
+ 0.766504 1 0 ack 40 ------- 0 1.0 0.0 93 189
- 0.766504 1 0 ack 40 ------- 0 1.0 0.0 93 189
r 0.767736 0 1 tcp 1540 ------- 0 0.0 1.0 94 186
+ 0.767736 1 0 ack 40 ------- 0 1.0 0.0 94 190
- 0.767736 1 0 ack 40 ------- 0 1.0 0.0 94 190
r 0.768968 0 1 tcp 1540 ------- 0 0.0 1.0 95 187
+ 0.768968 1 0 ack 40 ------- 0 1.0 0.0 95 191
- 0.768968 1 0 ack 40 ------- 0 1.0 0.0 95 191
r 0.770304 1 0 ack 40 ------- 0 1.0 0.0 92 188
+ 0.770304 0 1 tcp 1540 ------- 0 0.0 1.0 96 192
- 0.770304 0 1 tcp 1540 ------- 0 0.0 1.0 96 192
r 0.771536 1 0 ack 40 ------- 0 1.0 0.0 93 189
+ 0.771536 0 1 tcp 1540 ------- 0 0.0 1.0 97 193
- 0.771536 0 1 tcp 1540 ------- 0 0.0 1.0 97 193
r 0.772768 1 0 ack 40 ------- 0 1.0 0.0 94 190
+ 0.772768 0 1 tcp 1540 ------- 0 0.0 1.0 98 194
- 0.772768 0 1 tcp 1540 ------- 0 0.0 1.0 98 194
r 0.774 1 0 ack 40 ------- 0 1.0 0.0 95 191
+ 0.774 0 1 tcp 1540 ------- 0 0.0 1.0 99 195
- 0.774 0 1 tcp 1540 ------- 0 0.0 1.0 99 195
r 0.776536 0 1 tcp 1540 ------- 0 0.0 1.0 96 192
+ 0.776536 1 0 ack 40 ------- 0 1.0 0.0 96 196
- 0.776536 1 0 ack 40 ------- 0 1.0 0.0 96 196
r 0.777768 0 1 tcp 1540 ------- 0 0.0 1.0 97 193
+ 0.777768 1 0 ack 40 ------- 0 1.0 0.0 97 197
- 0.777768 1 0 ack 40 ------- 0 1.0 0.0 97 197
r 0.779 0 1 tcp 1540 ------- 0 0.0 1.0 98 194
+ 0.779 1 0 ack 40 ------- 0 1.0 0.0 98 198
- 0.779 1 0 ack 40 ------- 0 1.0 0.0 98 198
r 0.780232 0 1 tcp 1540 ------- 0 0.0 1.0 99 195
+ 0.780232 1 0 ack 40 ------- 0 1.0 0.0 99 199
- 0.780232 1 0 ack 40 ------- 0 1.0 0.0 99 199
r 0.781568 1 0 ack 40 ------- 0 1.0 0.0 96 196
+ 0.781568 0 1 tcp 1540 ------- 0 0.0 1.0 100 200
- 0.781568 0 1 tcp 1540 ------- 0 0.0 1.0 100 200
r 0.7828 1 0 ack 40 ------- 0 1.0 0.0 97 197
+ 0.7828 0 1 tcp 1540 ------- 0 0.0 1.0 101 201
- 0.7828 0 1 tcp 1540 ------- 0 0.0 1.0 101 201
r 0.784032 1 0 ack 40 ------- 0 1.0 0.0 98 198
+ 0.784032 0 1 tcp 1540 ------- 0 0.0 1.0 102 202
- 0.784032 0 1 tcp 1540 ------- 0 0.0 1.0 102 202
r 0.785264 1 0 ack 40 ------- 0 1.0 0.0 99 199
+ 0.785264 0 1 tcp 1540 ------- 0 0.0 1.0 103 203
- 0.785264 0 1 tcp 1540 ------- 0 0.0 1.0 103 203
r 0.7878 0 1 tcp 1540 ------- 0 0.0 1.0 100 200
+ 0.7878 1 0 ack 40 ------- 0 1.0 0.0 100 204
- 0.7878 1 0 ack 40 ------- 0 1.0 0.0 100 204
r 0.789032 0 1 tcp 1540 ------- 0 0.0 1.0 101 201
+ 0.789032 1 0 ack 40 ------- 0 1.0 0.0 101 205
- 0.789032 1 0 ack 40 ------- 0 1.0 0.0 101 205
r 0.790264 0 1 tcp 1540 ------- 0 0.0 1.0 102 202
+ 0.790264 1 0 ack 40 ------- 0 1.0 0.0 102 206
- 0.790264 1 0 ack 40 ------- 0 1.0 0.0 102 206
r 0.791496 0 1 tcp 1540 ------- 0 0.0 1.0 103 203
+ 0.791496 1 0 ack 40 ------- 0 1.0 0.0 103 207
- 0.791496 1 0 ack 40 ------- 0 1.0 0.0 103 207
r 0.792832 1 0 ack 40 ------- 0 1.0 0.0 100 204
+ 0.792832 0 1 tcp 1540 ------- 0 0.0 1.0 104 208
- 0.792832 0 1 tcp 1540 ------- 0 0.0 1.0 104 208
r 0.794064 1 0 ack 40 ------- 0 1.0 0.0 101 205
+ 0.794064 0 1 tcp 1540 ------- 0 0.0 1.0 105 209
- 0.794064 0 1 tcp 1540 ------- 0 0.0 1.0 105 209
r 0.795296 1 0 ack 40 ------- 0 1.0 0.0 102 206
+ 0.795296 0 1 tcp 1540 ------- 0 0.0 1.0 106 210
- 0.795296 0 1 tcp 1540 ------- 0 0.0 1.0 106 210
r 0.796528 1 0 ack 40 ------- 0 1.0 0.0 103 207
+ 0.796528 0 1 tcp 1540 ------- 0 0.0 1.0 107 211
- 0.796528 0 1 tcp 1540 ------- 0 0.0 1.0 107 211
r 0.799064 0 1 tcp 1540 ------- 0 0.0 1.0 104 208
+ 0.799064 1 0 ack 40 ------- 0 1.0 0.0 104 212
- 0.799064 1 0 ack 40 ------- 0 1.0 0.0 104 212
r 0.800296 0 1 tcp 1540 ------- 0 0.0 1.0 105 209