V -t * -v 1.0a5 -a 0
A -t * -n 1 -p 0 -o 0x7fffffff -c 30 -a 1
A -t * -h 1 -m 1073741823 -s 0
n -t * -a 0 -s 0 -S UP -v circle -c black -i black
n -t * -a 1 -s 1 -S UP -v circle -c black -i black
l -t * -s 0 -d 1 -S UP -r 10000000 -D 0.0050000000000000001 -c black
n -t 0 -s 0 -S DLABEL -l "SRP_sender" -L ""
n -t 0 -s 1 -S DLABEL -l "SRP_reciever" -L ""
+ -t 0.5 -s 0 -d 1 -p tcp -e 4260 -c 0 -i 0 -a 0 -x {0.0 1.0 0 ------- null}
- -t 0.5 -s 0 -d 1 -p tcp -e 4260 -c 0 -i 0 -a 0 -x {0.0 1.0 0 ------- null}
h -t 0.5 -s 0 -d 1 -p tcp -e 4260 -c 0 -i 0 -a 0 -x {0.0 1.0 -1 ------- null}
+ -t 0.5 -s 0 -d 1 -p tcp -e 4300 -c 0 -i 1 -a 0 -x {0.0 1.0 1 ------- null}
+ -t 0.5 -s 0 -d 1 -p tcp -e 4300 -c 0 -i 2 -a 0 -x {0.0 1.0 2 ------- null}
+ -t 0.5 -s 0 -d 1 -p tcp -e 4300 -c 0 -i 3 -a 0 -x {0.0 1.0 3 ------- null}
- -t 0.503408 -s 0 -d 1 -p tcp -e 4300 -c 0 -i 1 -a 0 -x {0.0 1.0 1 ------- null}
h -t 0.503408 -s 0 -d 1 -p tcp -e 4300 -c 0 -i 1 -a 0 -x {0.0 1.0 -1 ------- null}
- -t 0.506848 -s 0 -d 1 -p tcp -e 4300 -c 0 -i 2 -a 0 -x {0.0 1.0 2 ------- null}
h -t 0.506848 -s 0 -d 1 -p tcp -e 4300 -c 0 -i 2 -a 0 -x {0.0 1.0 -1 ------- null}
r -t 0.508408 -s 0 -d 1 -p tcp -e 4260 -c 0 -i 0 -a 0 -x {0.0 1.0 0 ------- null}
+ -t 0.508408 -s 1 -d 0 -p ack -e 40 -c 0 -i 4 -a 0 -x {1.0 0.0 0 ------- null}
- -t 0.508408 -s 1 -d 0 -p ack -e 40 -c 0 -i 4 -a 0 -x {1.0 0.0 0 ------- null}
h -t 0.508408 -s 1 -d 0 -p ack -e 40 -c 0 -i 4 -a 0 -x {1.0 0.0 -1 ------- null}
- -t 0.510288 -s 0 -d 1 -p tcp -e 4300 -c 0 -i 3 -a 0 -x {0.0 1.0 3 ------- null}
h -t 0.510288 -s 0 -d 1 -p tcp -e 4300 -c 0 -i 3 -a 0 -x {0.0 1.0 -1 ------- null}
r -t 0.511848 -s 0 -d 1 -p tcp -e 4300 -c 0 -i 1 -a 0 -x {0.0 1.0 1 ------- null}
+ -t 0.511848 -s 1 -d 0 -p ack -e 40 -c 0 -i 5 -a 0 -x {1.0 0.0 1 ------- null}
- -t 0.511848 -s 1 -d 0 -p ack -e 40 -c 0 -i 5 -a 0 -x {1.0 0.0 1 ------- null}
h -t 0.511848 -s 1 -d 0 -p ack -e 40 -c 0 -i 5 -a 0 -x {1.0 0.0 -1 ------- null}
r -t 0.51344 -s 1 -d 0 -p ack -e 40 -c 0 -i 4 -a 0 -x {1.0 0.0 0 ------- null}
+ -t 0.51344 -s 0 -d 1 -p tcp -e 4300 -c 0 -i 6 -a 0 -x {0.0 1.0 4 ------- null}
- -t 0.513728 -s 0 -d 1 -p tcp -e 4300 -c 0 -i 6 -a 0 -x {0.0 1.0 4 ------- null}
h -t 0.513728 -s 0 -d 1 -p tcp -e 4300 -c 0 -i 6 -a 0 -x {0.0 1.0 -1 ------- null}
r -t 0.515288 -s 0 -d 1 -p tcp -e 4300 -c 0 -i 2 -a 0 -x {0.0 1.0 2 ------- null}
+ -t 0.515288 -s 1 -d 0 -p ack -e 40 -c 0 -i 7 -a 0 -x {1.0 0.0 2 ------- null}
- -t 0.515288 -s 1 -d 0 -p ack -e 40 -c 0 -i 7 -a 0 -x {1.0 0.0 2 ------- null}
h -t 0.515288 -s 1 -d 0 -p ack -e 40 -c 0 -i 7 -a 0 -x {1.0 0.0 -1 ------- null}
r -t 0.51688 -s 1 -d 0 -p ack -e 40 -c 0 -i 5 -a 0 -x {1.0 0.0 1 ------- null}
+ -t 0.51688 -s 0 -d 1 -p tcp -e 4300 -c 0 -i 8 -a 0 -x {0.0 1.0 5 ------- null}
- -t 0.517168 -s 0 -d 1 -p tcp -e 4300 -c 0 -i 8 -a 0 -x {0.0 1.0 5 ------- null}
h -t 0.517168 -s 0 -d 1 -p tcp -e 4300 -c 0 -i 8 -a 0 -x {0.0 1.0 -1 ------- null}
r -t 0.518728 -s 0 -d 1 -p tcp -e 4300 -c 0 -i 3 -a 0 -x {0.0 1.0 3 ------- null}
+ -t 0.518728 -s 1 -d 0 -p ack -e 40 -c 0 -i 9 -a 0 -x {1.0 0.0 3 ------- null}
- -t 0.518728 -s 1 -d 0 -p ack -e 40 -c 0 -i 9 -a 0 -x {1.0 0.0 3 ------- null}
h -t 0.518728 -s 1 -d 0 -p ack -e 40 -c 0 -i 9 -a 0 -x {1.0 0.0 -1 ------- null}
r -t 0.52032 -s 1 -d 0 -p ack -e 40 -c 0 -i 7 -a 0 -x {1.0 0.0 2 ------- null}
+ -t 0.52032 -s 0 -d 1 -p tcp -e 4300 -c 0 -i 10 -a 0 -x {0.0 1.0 6 ------- null}
- -t 0.520608 -s 0 -d 1 -p tcp -e 4300 -c 0 -i 10 -a 0 -x {0.0 1.0 6 ------- null}
h -t 0.520608 -s 0 -d 1 -p tcp -e 4300 -c 0 -i 10 -a 0 -x {0.0 1.0 -1 ------- null}
r -t 0.522168 -s 0 -d 1 -p tcp -e 4300 -c 0 -i 6 -a 0 -x {0.0 1.0 4 ------- null}
+ -t 0.522168 -s 1 -d 0 -p ack -e 40 -c 0 -i 11 -a 0 -x {1.0 0.0 4 ------- null}
- -t 0.522168 -s 1 -d 0 -p ack -e 40 -c 0 -i 11 -a 0 -x {1.0 0.0 4 ------- null}
h -t 0.522168 -s 1 -d 0 -p ack -e 40 -c 0 -i 11 -a 0 -x {1.0 0.0 -1 ------- null}
r -t 0.52376 -s 1 -d 0 -p ack -e 40 -c 0 -i 9 -a 0 -x {1.0 0.0 3 ------- null}
+ -t 0.52376 -s 0 -d 1 -p tcp -e 4300 -c 0 -i 12 -a 0 -x {0.0 1.0 7 ------- null}
- -t 0.524048 -s 0 -d 1 -p tcp -e 4300 -c 0 -i 12 -a 0 -x {0.0 1.0 7 ------- null}
h -t 0.524048 -s 0 -d 1 -p tcp -e 4300 -c 0 -i 12 -a 0 -x {0.0 1.0 -1 ------- null}
r -t 0.525608 -s 0 -d 1 -p tcp -e 4300 -c 0 -i 8 -a 0 -x {0.0 1.0 5 ------- null}
+ -t 0.525608 -s 1 -d 0 -p ack -e 40 -c 0 -i 13 -a 0 -x {1.0 0.0 5 ------- null}
- -t 0.525608 -s 1 -d 0 -p ack -e 40 -c 0 -i 13 -a 0 -x {1.0 0.0 5 ------- null}
h -t 0.525608 -s 1 -d 0 -p ack -e 40 -c 0 -i 13 -a 0 -x {1.0 0.0 -1 ------- null}
r -t 0.5272 -s 1 -d 0 -p ack -e 40 -c 0 -i 11 -a 0 -x {1.0 0.0 4 ------- null}
+ -t 0.5272 -s 0 -d 1 -p tcp -e 4300 -c 0 -i 14 -a 0 -x {0.0 1.0 8 ------- null}
- -t 0.527488 -s 0 -d 1 -p tcp -e 4300 -c 0 -i 14 -a 0 -x {0.0 1.0 8 ------- null}
h -t 0.527488 -s 0 -d 1 -p tcp -e 4300 -c 0 -i 14 -a 0 -x {0.0 1.0 -1 ------- null}
r -t 0.529048 -s 0 -d 1 -p tcp -e 4300 -c 0 -i 10 -a 0 -x {0.0 1.0 6 ------- null}
+ -t 0.529048 -s 1 -d 0 -p ack -e 40 -c 0 -i 15 -a 0 -x {1.0 0.0 6 ------- null}
- -t 0.529048 -s 1 -d 0 -p ack -e 40 -c 0 -i 15 -a 0 -x {1.0 0.0 6 ------- null}
h -t 0.529048 -s 1 -d 0 -p ack -e 40 -c 0 -i 15 -a 0 -x {1.0 0.0 -1 ------- null}
r -t 0.53064 -s 1 -d 0 -p ack -e 40 -c 0 -i 13 -a 0 -x {1.0 0.0 5 ------- null}
+ -t 0.53064 -s 0 -d 1 -p tcp -e 4300 -c 0 -i 16 -a 0 -x {0.0 1.0 9 ------- null}
- -t 0.530928 -s 0 -d 1 -p tcp -e 4300 -c 0 -i 16 -a 0 -x {0.0 1.0 9 ------- null}
h -t 0.530928 -s 0 -d 1 -p tcp -e 4300 -c 0 -i 16 -a 0 -x {0.0 1.0 -1 ------- null}
r -t 0.532488 -s 0 -d 1 -p tcp -e 4300 -c 0 -i 12 -a 0 -x {0.0 1.0 7 ------- null}
+ -t 0.532488 -s 1 -d 0 -p ack -e 40 -c 0 -i 17 -a 0 -x {1.0 0.0 7 ------- null}
- -t 0.532488 -s 1 -d 0 -p ack -e 40 -c 0 -i 17 -a 0 -x {1.0 0.0 7 ------- null}
h -t 0.532488 -s 1 -d 0 -p ack -e 40 -c 0 -i 17 -a 0 -x {1.0 0.0 -1 ------- null}
r -t 0.53408 -s 1 -d 0 -p ack -e 40 -c 0 -i 15 -a 0 -x {1.0 0.0 6 ------- null}
+ -t 0.53408 -s 0 -d 1 -p tcp -e 4300 -c 0 -i 18 -a 0 -x {0.0 1.0 10 ------- null}
- -t 0.534368 -s 0 -d 1 -p tcp -e 4300 -c 0 -i 18 -a 0 -x {0.0 1.0 10 ------- null}
h -t 0.534368 -s 0 -d 1 -p tcp -e 4300 -c 0 -i 18 -a 0 -x {0.0 1.0 -1 ------- null}
r -t 0.535928 -s 0 -d 1 -p tcp -e 4300 -c 0 -i 14 -a 0 -x {0.0 1.0 8 ------- null}
+ -t 0.535928 -s 1 -d 0 -p ack -e 40 -c 0 -i 19 -a 0 -x {1.0 0.0 8 ------- null}
- -t 0.535928 -s 1 -d 0 -p ack -e 40 -c 0 -i 19 -a 0 -x {1.0 0.0 8 ------- null}
h -t 0.535928 -s 1 -d 0 -p ack -e 40 -c 0 -i 19 -a 0 -x {1.0 0.0 -1 ------- null}
r -t 0.53752 -s 1 -d 0 -p ack -e 40 -c 0 -i 17 -a 0 -x {1.0 0.0 7 ------- null}
+ -t 0.53752 -s 0 -d 1 -p tcp -e 4300 -c 0 -i 20 -a 0 -x {0.0 1.0 11 ------- null}
- -t 0.537808 -s 0 -d 1 -p tcp -e 4300 -c 0 -i 20 -a 0 -x {0.0 1.0 11 ------- null}
h -t 0.537808 -s 0 -d 1 -p tcp -e 4300 -c 0 -i 20 -a 0 -x {0.0 1.0 -1 ------- null}
r -t 0.539368 -s 0 -d 1 -p tcp -e 4300 -c 0 -i 16 -a 0 -x {0.0 1.0 9 ------- null}
+ -t 0.539368 -s 1 -d 0 -p ack -e 40 -c 0 -i 21 -a 0 -x {1.0 0.0 9 ------- null}
- -t 0.539368 -s 1 -d 0 -p ack -e 40 -c 0 -i 21 -a 0 -x {1.0 0.0 9 ------- null}
h -t 0.539368 -s 1 -d 0 -p ack -e 40 -c 0 -i 21 -a 0 -x {1.0 0.0 -1 ------- null}
r -t 0.54096 -s 1 -d 0 -p ack -e 40 -c 0 -i 19 -a 0 -x {1.0 0.0 8 ------- null}
+ -t 0.54096 -s 0 -d 1 -p tcp -e 4300 -c 0 -i 22 -a 0 -x {0.0 1.0 12 ------- null}
- -t 0.541248 -s 0 -d 1 -p tcp -e 4300 -c 0 -i 22 -a 0 -x {0.0 1.0 12 ------- null}
h -t 0.541248 -s 0 -d 1 -p tcp -e 4300 -c 0 -i 22 -a 0 -x {0.0 1.0 -1 ------- null}
r -t 0.542808 -s 0 -d 1 -p tcp -e 4300 -c 0 -i 18 -a 0 -x {0.0 1.0 10 ------- null}
+ -t 0.542808 -s 1 -d 0 -p ack -e 40 -c 0 -i 23 -a 0 -x {1.0 0.0 10 ------- null}
- -t 0.542808 -s 1 -d 0 -p ack -e 40 -c 0 -i 23 -a 0 -x {1.0 0.0 10 ------- null}
h -t 0.542808 -s 1 -d 0 -p ack -e 40 -c 0 -i 23 -a 0 -x {1.0 0.0 -1 ------- null}
r -t 0.5444 -s 1 -d 0 -p ack -e 40 -c 0 -i 21 -a 0 -x {1.0 0.0 9 ------- null}
+ -t 0.5444 -s 0 -d 1 -p tcp -e 4300 -c 0 -i 24 -a 0 -x {0.0 1.0 13 ------- null}
- -t 0.544688 -s 0 -d 1 -p tcp -e 4300 -c 0 -i 24 -a 0 -x {0.0 1.0 13 ------- null}
h -t 0.544688 -s 0 -d 1 -p tcp -e 4300 -c 0 -i 24 -a 0 -x {0.0 1.0 -1 ------- null}
r -t 0.546248 -s 0 -d 1 -p tcp -e 4300 -c 0 -i 20 -a 0 -x {0.0 1.0 11 ------- null}
+ -t 0.546248 -s 1 -d 0 -p ack -e 40 -c 0 -i 25 -a 0 -x {1.0 0.0 11 ------- null}
- -t 0.546248 -s 1 -d 0 -p ack -e 40 -c 0 -i 25 -a 0 -x {1.0 0.0 11 ------- null}
h -t 0.546248 -s 1 -d 0 -p ack -e 40 -c 0 -i 25 -a 0 -x {1.0 0.0 -1 ------- null}
r -t 0.54784 -s 1 -d 0 -p ack -e 40 -c 0 -i 23 -a 0 -x {1.0 0.0 10 ------- null}
+ -t 0.54784 -s 0 -d 1 -p tcp -e 4300 -c 0 -i 26 -a 0 -x {0.0 1.0 14 ------- null}
- -t 0.548128 -s 0 -d 1 -p tcp -e 4300 -c 0 -i 26 -a 0 -x {0.0 1.0 14 ------- null}
h -t 0.548128 -s 0 -d 1 -p tcp -e 4300 -c 0 -i 26 -a 0 -x {0.0 1.0 -1 ------- null}
r -t 0.549688 -s 0 -d 1 -p tcp -e 4300 -c 0 -i 22 -a 0 -x {0.0 1.0 12 ------- null}
+ -t 0.549688 -s 1 -d 0 -p ack -e 40 -c 0 -i 27 -a 0 -x {1.0 0.0 12 ------- null}
- -t 0.549688 -s 1 -d 0 -p ack -e 40 -c 0 -i 27 -a 0 -x {1.0 0.0 12 ------- null}
h -t 0.549688 -s 1 -d 0 -p ack -e 40 -c 0 -i 27 -a 0 -x {1.0 0.0 -1 ------- null}
r -t 0.55128 -s 1 -d 0 -p ack -e 40 -c 0 -i 25 -a 0 -x {1.0 0.0 11 ------- null}
+ -t 0.55128 -s 0 -d 1 -p tcp -e 4300 -c 0 -i 28 -a 0 -x {0.0 1.0 15 ------- null}
- -t 0.551568 -s 0 -d 1 -p tcp -e 4300 -c 0 -i 28 -a 0 -x {0.0 1.0 15 ------- null}
h -t 0.551568 -s 0 -d 1 -p tcp -e 4300 -c 0 -i 28 -a 0 -x {0.0 1.0 -1 ------- null}
r -t 0.553128 -s 0 -d 1 -p tcp -e 4300 -c 0 -i 24 -a 0 -x {0.0 1.0 13 ------- null}
+ -t 0.553128 -s 1 -d 0 -p ack -e 40 -c 0 -i 29 -a 0 -x {1.0 0.0 13 ------- null}
- -t 0.553128 -s 1 -d 0 -p ack -e 40 -c 0 -i 29 -a 0 -x {1.0 0.0 13 ------- null}
h -t 0.553128 -s 1 -d 0 -p ack -e 40 -c 0 -i 29 -a 0 -x {1.0 0.0 -1 ------- null}
r -t 0.55472 -s 1 -d 0 -p ack -e 40 -c 0 -i 27 -a 0 -x {1.0 0.0 12 ------- null}
+ -t 0.55472 -s 0 -d 1 -p tcp -e 4300 -c 0 -i 30 -a 0 -x {0.0 1.0 16 ------- null}
- -t 0.555008 -s 0 -d 1 -p tcp -e 4300 -c 0 -i 30 -a 0 -x {0.0 1.0 16 ------- null}
h -t 0.555008 -s 0 -d 1 -p tcp -e 4300 -c 0 -i 30 -a 0 -x {0.0 1.0 -1 ------- null}
r -t 0.556568 -s 0 -d 1 -p tcp -e 4300 -c 0 -i 26 -a 0 -x {0.0 1.0 14 ------- null}
+ -t 0.556568 -s 1 -d 0 -p ack -e 40 -c 0 -i 31 -a 0 -x {1.0 0.0 14 ------- null}
- -t 0.556568 -s 1 -d 0 -p ack -e 40 -c 0 -i 31 -a 0 -x {1.0 0.0 14 ------- null}
h -t 0.556568 -s 1 -d 0 -p ack -e 40 -c 0 -i 31 -a 0 -x {1.0 0.0 -1 ------- null}
r -t 0.55816 -s 1 -d 0 -p ack -e 40 -c 0 -i 29 -a 0 -x {1.0 0.0 13 ------- null}
+ -t 0.55816 -s 0 -d 1 -p tcp -e 4300 -c 0 -i 32 -a 0 -x {0.0 1.0 17 ------- null}
- -t 0.558448 -s 0 -d 1 -p tcp -e 4300 -c 0 -i 32 -a 0 -x {0.0 1.0 17 ------- null}
h -t 0.558448 -s 0 -d 1 -p tcp -e 4300 -c 0 -i 32 -a 0 -x {0.0 1.0 -1 ------- null}
r -t 0.560008 -s 0 -d 1 -p tcp -e 4300 -c 0 -i 28 -a 0 -x {0.0 1.0 15 ------- null}
+ -t 0.560008 -s 1 -d 0 -p ack -e 40 -c 0 -i 33 -a 0 -x {1.0 0.0 15 ------- null}
- -t 0.560008 -s 1 -d 0 -p ack -e 40 -c 0 -i 33 -a 0 -x {1.0 0.0 15 ------- null}
h -t 0.560008 -s 1 -d 0 -p ack -e 40 -c 0 -i 33 -a 0 -x {1.0 0.0 -1 ------- null}
r -t 0.5616 -s 1 -d 0 -p ack -e 40 -c 0 -i 31 -a 0 -x {1.0 0.0 14 ------- null}
+ -t 0.5616 -s 0 -d 1 -p tcp -e 4300 -c 0 -i 34 -a 0 -x {0.0 1.0 18 ------- null}
- -t 0.561888 -s 0 -d 1 -p tcp -e 4300 -c 0 -i 34 -a 0 -x {0.0 1.0 18 ------- null}
h -t 0.561888 -s 0 -d 1 -p tcp -e 4300 -c 0 -i 34 -a 0 -x {0.0 1.0 -1 ------- null}
r -t 0.563448 -s 0 -d 1 -p tcp -e 4300 -c 0 -i 30 -a 0 -x {0.0 1.0 16 ------- null}
+ -t 0.563448 -s 1 -d 0 -p ack -e 40 -c 0 -i 35 -a 0 -x {1.0 0.0 16 ------- null}
- -t 0.563448 -s 1 -d 0 -p ack -e 40 -c 0 -i 35 -a 0 -x {1.0 0.0 16 ------- null}
h -t 0.563448 -s 1 -d 0 -p ack -e 40 -c 0 -i 35 -a 0 -x {1.0 0.0 -1 ------- null}
r -t 0.56504 -s 1 -d 0 -p ack -e 40 -c 0 -i 33 -a 0 -x {1.0 0.0 15 ------- null}
+ -t 0.56504 -s 0 -d 1 -p tcp -e 4300 -c 0 -i 36 -a 0 -x {0.0 1.0 19 ------- null}
- -t 0.565328 -s 0 -d 1 -p tcp -e 4300 -c 0 -i 36 -a 0 -x {0.0 1.0 19 ------- null}
h -t 0.565328 -s 0 -d 1 -p tcp -e 4300 -c 0 -i 36 -a 0 -x {0.0 1.0 -1 ------- null}
r -t 0.566888 -s 0 -d 1 -p tcp -e 4300 -c 0 -i 32 -a 0 -x {0.0 1.0 17 ------- null}
+ -t 0.566888 -s 1 -d 0 -p ack -e 40 -c 0 -i 37 -a 0 -x {1.0 0.0 17 ------- null}
- -t 0.566888 -s 1 -d 0 -p ack -e 40 -c 0 -i 37 -a 0 -x {1.0 0.0 17 ------- null}
h -t 0.566888 -s 1 -d 0 -p ack -e 40 -c 0 -i 37 -a 0 -x {1.0 0.0 -1 ------- null}
r -t 0.56848 -s 1 -d 0 -p ack -e 40 -c 0 -i 35 -a 0 -x {1.0 0.0 16 ------- null}
+ -t 0.56848 -s 0 -d 1 -p tcp -e 4300 -c 0 -i 38 -a 0 -x {0.0 1.0 20 ------- null}
- -t 0.568768 -s 0 -d 1 -p tcp -e 4300 -c 0 -i 38 -a 0 -x {0.0 1.0 20 ------- null}
h -t 0.568768 -s 0 -d 1 -p tcp -e 4300 -c 0 -i 38 -a 0 -x {0.0 1.0 -1 ------- null}
r -t 0.570328 -s 0 -d 1 -p tcp -e 4300 -c 0 -i 34 -a 0 -x {0.0 1.0 18 ------- null}
+ -t 0.570328 -s 1 -d 0 -p ack -e 40 -c 0 -i 39 -a 0 -x {1.0 0.0 18 ------- null}
- -t 0.570328 -s 1 -d 0 -p ack -e 40 -c 0 -i 39 -a 0 -x {1.0 0.0 18 ------- null}
h -t 0.570328 -s 1 -d 0 -p ack -e 40 -c 0 -i 39 -a 0 -x {1.0 0.0 -1 ------- null}
r -t 0.57192 -s 1 -d 0 -p ack -e 40 -c 0 -i 37 -a 0 -x {1.0 0.0 17 ------- null}
+ -t 0.57192 -s 0 -d 1 -p tcp -e 4300 -c 0 -i 40 -a 0 -x {0.0 1.0 21 ------- null}
- -t 0.572208 -s 0 -d 1 -p tcp -e 4300 -c 0 -i 40 -a 0 -x {0.0 1.0 21 ------- null}
h -t 0.572208 -s 0 -d 1 -p tcp -e 4300 -c 0 -i 40 -a 0 -x {0.0 1.0 -1 ------- null}
r -t 0.573768 -s 0 -d 1 -p tcp -e 4300 -c 0 -i 36 -a 0 -x {0.0 1.0 19 ------- null}
+ -t 0.573768 -s 1 -d 0 -p ack -e 40 -c 0 -i 41 -a 0 -x {1.0 0.0 19 ------- null}
- -t 0.573768 -s 1 -d 0 -p ack -e 40 -c 0 -i 41 -a 0 -x {1.0 0.0 19 ------- null}
h -t 0.573768 -s 1 -d 0 -p ack -e 40 -c 0 -i 41 -a 0 -x {1.0 0.0 -1 ------- null}
r -t 0.57536 -s 1 -d 0 -p ack -e 40 -c 0 -i 39 -a 0 -x {1.0 0.0 18 ------- null}
+ -t 0.57536 -s 0 -d 1 -p tcp -e 4300 -c 0 -i 42 -a 0 -x {0.0 1.0 22 ------- null}
- -t 0.575648 -s 0 -d 1 -p tcp -e 4300 -c 0 -i 42 -a 0 -x {0.0 1.0 22 ------- null}
h -t 0.575648 -s 0 -d 1 -p tcp -e 4300 -c 0 -i 42 -a 0 -x {0.0 1.0 -1 ------- null}
r -t 0.577208 -s 0 -d 1 -p tcp -e 4300 -c 0 -i 38 -a 0 -x {0.0 1.0 20 ------- null}
+ -t 0.577208 -s 1 -d 0 -p ack -e 40 -c 0 -i 43 -a 0 -x {1.0 0.0 20 ------- null}
- -t 0.577208 -s 1 -d 0 -p ack -e 40 -c 0 -i 43 -a 0 -x {1.0 0.0 20 ------- null}
h -t 0.577208 -s 1 -d 0 -p ack -e 40 -c 0 -i 43 -a 0 -x {1.0 0.0 -1 ------- null}
r -t 0.5788 -s 1 -d 0 -p ack -e 40 -c 0 -i 41 -a 0 -x {1.0 0.0 19 ------- null}
+ -t 0.5788 -s 0 -d 1 -p tcp -e 4300 -c 0 -i 44 -a 0 -x {0.0 1.0 23 ------- null}
- -t 0.579088 -s 0 -d 1 -p tcp -e 4300 -c 0 -i 44 -a 0 -x {0.0 1.0 23 ------- null}
h -t 0.579088 -s 0 -d 1 -p tcp -e 4300 -c 0 -i 44 -a 0 -x {0.0 1.0 -1 ------- null}
r -t 0.580648 -s 0 -d 1 -p tcp -e 4300 -c 0 -i 40 -a 0 -x {0.0 1.0 21 ------- null}
+ -t 0.580648 -s 1 -d 0 -p ack -e 40 -c 0 -i 45 -a 0 -x {1.0 0.0 21 ------- null}
- -t 0.580648 -s 1 -d 0 -p ack -e 40 -c 0 -i 45 -a 0 -x {1.0 0.0 21 ------- null}
h -t 0.580648 -s 1 -d 0 -p ack -e 40 -c 0 -i 45 -a 0 -x {1.0 0.0 -1 ------- null}
r -t 0.58224 -s 1 -d 0 -p ack -e 40 -c 0 -i 43 -a 0 -x {1.0 0.0 20 ------- null}
+ -t 0.58224 -s 0 -d 1 -p tcp -e 4300 -c 0 -i 46 -a 0 -x {0.0 1.0 24 ------- null}
- -t 0.582528 -s 0 -d 1 -p tcp -e 4300 -c 0 -i 46 -a 0 -x {0.0 1.0 24 ------- null}
h -t 0.582528 -s 0 -d 1 -p tcp -e 4300 -c 0 -i 46 -a 0 -x {0.0 1.0 -1 ------- null}
r -t 0.584088 -s 0 -d 1 -p tcp -e 4300 -c 0 -i 42 -a 0 -x {0.0 1.0 22 ------- null}
+ -t 0.584088 -s 1 -d 0 -p ack -e 40 -c 0 -i 47 -a 0 -x {1.0 0.0 22 ------- null}
- -t 0.584088 -s 1 -d 0 -p ack -e 40 -c 0 -i 47 -a 0 -x {1.0 0.0 22 ------- null}
h -t 0.584088 -s 1 -d 0 -p ack -e 40 -c 0 -i 47 -a 0 -x {1.0 0.0 -1 ------- null}
r -t 0.58568 -s 1 -d 0 -p ack -e 40 -c 0 -i 45 -a 0 -x {1.0 0.0 21 ------- null}
+ -t 0.58568 -s 0 -d 1 -p tcp -e 4300 -c 0 -i 48 -a 0 -x {0.0 1.0 25 ------- null}
- -t 0.585968 -s 0 -d 1 -p tcp -e 4300 -c 0 -i 48 -a 0 -x {0.0 1.0 25 ------- null}
h -t 0.585968 -s 0 -d 1 -p tcp -e 4300 -c 0 -i 48 -a 0 -x {0.0 1.0 -1 ------- null}
r -t 0.587528 -s 0 -d 1 -p tcp -e 4300 -c 0 -i 44 -a 0 -x {0.0 1.0 23 ------- null}
+ -t 0.587528 -s 1 -d 0 -p ack -e 40 -c 0 -i 49 -a 0 -x {1.0 0.0 23 ------- null}
- -t 0.587528 -s 1 -d 0 -p ack -e 40 -c 0 -i 49 -a 0 -x {1.0 0.0 23 ------- null}
h -t 0.587528 -s 1 -d 0 -p ack -e 40 -c 0 -i 49 -a 0 -x {1.0 0.0 -1 ------- null}
r -t 0.58912 -s 1 -d 0 -p ack -e 40 -c 0 -i 47 -a 0 -x {1.0 0.0 22 ------- null}
+ -t 0.58912 -s 0 -d 1 -p tcp -e 4300 -c 0 -i 50 -a 0 -x {0.0 1.0 26 ------- null}
- -t 0.589408 -s 0 -d 1 -p tcp -e 4300 -c 0 -i 50 -a 0 -x {0.0 1.0 26 ------- null}
h -t 0.589408 -s 0 -d 1 -p tcp -e 4300 -c 0 -i 50 -a 0 -x {0.0 1.0 -1 ------- null}
r -t 0.590968 -s 0 -d 1 -p tcp -e 4300 -c 0 -i 46 -a 0 -x {0.0 1.0 24 ------- null}
+ -t 0.590968 -s 1 -d 0 -p ack -e 40 -c 0 -i 51 -a 0 -x {1.0 0.0 24 ------- null}
- -t 0.590968 -s 1 -d 0 -p ack -e 40 -c 0 -i 51 -a 0 -x {1.0 0.0 24 ------- null}
h -t 0.590968 -s 1 -d 0 -p ack -e 40 -c 0 -i 51 -a 0 -x {1.0 0.0 -1 ------- null}
r -t 0.59256 -s 1 -d 0 -p ack -e 40 -c 0 -i 49 -a 0 -x {1.0 0.0 23 ------- null}
+ -t 0.59256 -s 0 -d 1 -p tcp -e 4300 -c 0 -i 52 -a 0 -x {0.0 1.0 27 ------- null}
- -t 0.592848 -s 0 -d 1 -p tcp -e 4300 -c 0 -i 52 -a 0 -x {0.0 1.0 27 ------- null}
h -t 0.592848 -s 0 -d 1 -p tcp -e 4300 -c 0 -i 52 -a 0 -x {0.0 1.0 -1 ------- null}
r -t 0.594408 -s 0 -d 1 -p tcp -e 4300 -c 0 -i 48 -a 0 -x {0.0 1.0 25 ------- null}
+ -t 0.594408 -s 1 -d 0 -p ack -e 40 -c 0 -i 53 -a 0 -x {1.0 0.0 25 ------- null}
- -t 0.594408 -s 1 -d 0 -p ack -e 40 -c 0 -i 53 -a 0 -x {1.0 0.0 25 ------- null}
h -t 0.594408 -s 1 -d 0 -p ack -e 40 -c 0 -i 53 -a 0 -x {1.0 0.0 -1 ------- null}
r -t 0.596 -s 1 -d 0 -p ack -e 40 -c 0 -i 51 -a 0 -x {1.0 0.0 24 ------- null}
+ -t 0.596 -s 0 -d 1 -p tcp -e 4300 -c 0 -i 54 -a 0 -x {0.0 1.0 28 ------- null}
- -t 0.596288 -s 0 -d 1 -p tcp -e 4300 -c 0 -i 54 -a 0 -x {0.0 1.0 28 ------- null}
h -t 0.596288 -s 0 -d 1 -p tcp -e 4300 -c 0 -i 54 -a 0 -x {0.0 1.0 -1 ------- null}
r -t 0.597848 -s 0 -d 1 -p tcp -e 4300 -c 0 -i 50 -a 0 -x {0.0 1.0 26 ------- null}
+ -t 0.597848 -s 1 -d 0 -p ack -e 40 -c 0 -i 55 -a 0 -x {1.0 0.0 26 ------- null}
- -t 0.597848 -s 1 -d 0 -p ack -e 40 -c 0 -i 55 -a 0 -x {1.0 0.0 26 ------- null}
h -t 0.597848 -s 1 -d 0 -p ack -e 40 -c 0 -i 55 -a 0 -x {1.0 0.0 -1 ------- null}
r -t 0.59944 -s 1 -d 0 -p ack -e 40 -c 0 -i 53 -a 0 -x {1.0 0.0 25 ------- null}
+ -t 0.59944 -s 0 -d 1 -p tcp -e 4300 -c 0 -i 56 -a 0 -x {0.0 1.0 29 ------- null}
- -t 0.599728 -s 0 -d 1 -p tcp -e 4300 -c 0 -i 56 -a 0 -x {0.0 1.0 29 ------- null}
h -t 0.599728 -s 0 -d 1 -p tcp -e 4300 -c 0 -i 56 -a 0 -x {0.0 1.0 -1 ------- null}
r -t 0.601288 -s 0 -d 1 -p tcp -e 4300 -c 0 -i 52 -a 0 -x {0.0 1.0 27 ------- null}
+ -t 0.601288 -s 1 -d 0 -p ack -e 40 -c 0 -i 57 -a 0 -x {1.0 0.0 27 ------- null}
- -t 0.601288 -s 1 -d 0 -p ack -e 40 -c 0 -i 57 -a 0 -x {1.0 0.0 27 ------- null}
h -t 0.601288 -s 1 -d 0 -p ack -e 40 -c 0 -i 57 -a 0 -x {1.0 0.0 -1 ------- null}
r -t 0.60288 -s 1 -d 0 -p ack -e 40 -c 0 -i 55 -a 0 -x {1.0 0.0 26 ------- null}
+ -t 0.60288 -s 0 -d 1 -p tcp -e 4300 -c 0 -i 58 -a 0 -x {0.0 1.0 30 ------- null}
- -t 0.603168 -s 0 -d 1 -p tcp -e 4300 -c 0 -i 58 -a 0 -x {0.0 1.0 30 ------- null}
h -t 0.603168 -s 0 -d 1 -p tcp -e 4300 -c 0 -i 58 -a 0 -x {0.0 1.0 -1 ------- null}
r -t 0.604728 -s 0 -d 1 -p tcp -e 4300 -c 0 -i 54 -a 0 -x {0.0 1.0 28 ------- null}
+ -t 0.604728 -s 1 -d 0 -p ack -e 40 -c 0 -i 59 -a 0 -x {1.0 0.0 28 ------- null}
- -t 0.604728 -s 1 -d 0 -p ack -e 40 -c 0 -i 59 -a 0 -x {1.0 0.0 28 ------- null}
h -t 0.604728 -s 1 -d 0 -p ack -e 40 -c 0 -i 59 -a 0 -x {1.0 0.0 -1 ------- null}
r -t 0.60632 -s 1 -d 0 -p ack -e 40 -c 0 -i 57 -a 0 -x {1.0 0.0 27 ------- null}
+ -t 0.60632 -s 0 -d 1 -p tcp -e 4300 -c 0 -i 60 -a 0 -x {0.0 1.0 31 ------- null}
- -t 0.606608 -s 0 -d 1 -p tcp -e 4300 -c 0 -i 60 -a 0 -x {0.0 1.0 31 ------- null}
h -t 0.606608 -s 0 -d 1 -p tcp -e 4300 -c 0 -i 60 -a 0 -x {0.0 1.0 -1 ------- null}
r -t 0.608168 -s 0 -d 1 -p tcp -e 4300 -c 0 -i 56 -a 0 -x {0.0 1.0 29 ------- null}
+ -t 0.608168 -s 1 -d 0 -p ack -e 40 -c 0 -i 61 -a 0 -x {1.0 0.0 29 ------- null}
- -t 0.608168 -s 1 -d 0 -p ack -e 40 -c 0 -i 61 -a 0 -x {1.0 0.0 29 ------- null}
h -t 0.608168 -s 1 -d 0 -p ack -e 40 -c 0 -i 61 -a 0 -x {1.0 0.0 -1 ------- null}
r -t 0.60976 -s 1 -d 0 -p ack -e 40 -c 0 -i 59 -a 0 -x {1.0 0.0 28 ------- null}
+ -t 0.60976 -s 0 -d 1 -p tcp -e 4300 -c 0 -i 62 -a 0 -x {0.0 1.0 32 ------- null}
- -t 0.610048 -s 0 -d 1 -p tcp -e 4300 -c 0 -i 62 -a 0 -x {0.0 1.0 32 ------- null}
h -t 0.610048 -s 0 -d 1 -p tcp -e 4300 -c 0 -i 62 -a 0 -x {0.0 1.0 -1 ------- null}
r -t 0.611608 -s 0 -d 1 -p tcp -e 4300 -c 0 -i 58 -a 0 -x {0.0 1.0 30 ------- null}
+ -t 0.611608 -s 1 -d 0 -p ack -e 40 -c 0 -i 63 -a 0 -x {1.0 0.0 30 ------- null}
- -t 0.611608 -s 1 -d 0 -p ack -e 40 -c 0 -i 63 -a 0 -x {1.0 0.0 30 ------- null}
h -t 0.611608 -s 1 -d 0 -p ack -e 40 -c 0 -i 63 -a 0 -x {1.0 0.0 -1 ------- null}
r -t 0.6132 -s 1 -d 0 -p ack -e 40 -c 0 -i 61 -a 0 -x {1.0 0.0 29 ------- null}
+ -t 0.6132 -s 0 -d 1 -p tcp -e 4300 -c 0 -i 64 -a 0 -x {0.0 1.0 33 ------- null}
- -t 0.613488 -s 0 -d 1 -p tcp -e 4300 -c 0 -i 64 -a 0 -x {0.0 1.0 33 ------- null}
h -t 0.613488 -s 0 -d 1 -p tcp -e 4300 -c 0 -i 64 -a 0 -x {0.0 1.0 -1 ------- null}
r -t 0.615048 -s 0 -d 1 -p tcp -e 4300 -c 0 -i 60 -a 0 -x {0.0 1.0 31 ------- null}
+ -t 0.615048 -s 1 -d 0 -p ack -e 40 -c 0 -i 65 -a 0 -x {1.0 0.0 31 ------- null}
- -t 0.615048 -s 1 -d 0 -p ack -e 40 -c 0 -i 65 -a 0 -x {1.0 0.0 31 ------- null}
h -t 0.615048 -s 1 -d 0 -p ack -e 40 -c 0 -i 65 -a 0 -x {1.0 0.0 -1 ------- null}
r -t 0.61664 -s 1 -d 0 -p ack -e 40 -c 0 -i 63 -a 0 -x {1.0 0.0 30 ------- null}
+ -t 0.61664 -s 0 -d 1 -p tcp -e 4300 -c 0 -i 66 -a 0 -x {0.0 1.0 34 ------- null}
- -t 0.616928 -s 0 -d 1 -p tcp -e 4300 -c 0 -i 66 -a 0 -x {0.0 1.0 34 ------- null}
h -t 0.616928 -s 0 -d 1 -p tcp -e 4300 -c 0 -i 66 -a 0 -x {0.0 1.0 -1 ------- null}
r -t 0.618488 -s 0 -d 1 -p tcp -e 4300 -c 0 -i 62 -a 0 -x {0.0 1.0 32 ------- null}
+ -t 0.618488 -s 1 -d 0 -p ack -e 40 -c 0 -i 67 -a 0 -x {1.0 0.0 32 ------- null}
- -t 0.618488 -s 1 -d 0 -p ack -e 40 -c 0 -i 67 -a 0 -x {1.0 0.0 32 ------- null}
h -t 0.618488 -s 1 -d 0 -p ack -e 40 -c 0 -i 67 -a 0 -x {1.0 0.0 -1 ------- null}
r -t 0.62008 -s 1 -d 0 -p ack -e 40 -c 0 -i 65 -a 0 -x {1.0 0.0 31 ------- null}
+ -t 0.62008 -s 0 -d 1 -p tcp -e 4300 -c 0 -i 68 -a 0 -x {0.0 1.0 35 ------- null}
- -t 0.620368 -s 0 -d 1 -p tcp -e 4300 -c 0 -i 68 -a 0 -x {0.0 1.0 35 ------- null}
h -t 0.620368 -s 0 -d 1 -p tcp -e 4300 -c 0 -i 68 -a 0 -x {0.0 1.0 -1 ------- null}
r -t 0.621928 -s 0 -d 1 -p tcp -e 4300 -c 0 -i 64 -a 0 -x {0.0 1.0 33 ------- null}
+ -t 0.621928 -s 1 -d 0 -p ack -e 40 -c 0 -i 69 -a 0 -x {1.0 0.0 33 ------- null}
- -t 0.621928 -s 1 -d 0 -p ack -e 40 -c 0 -i 69 -a 0 -x {1.0 0.0 33 ------- null}
h -t 0.621928 -s 1 -d 0 -p ack -e 40 -c 0 -i 69 -a 0 -x {1.0 0.0 -1 ------- null}
r -t 0.62352 -s 1 -d 0 -p ack -e 40 -c 0 -i 67 -a 0 -x {1.0 0.0 32 ------- null}
+ -t 0.62352 -s 0 -d 1 -p tcp -e 4300 -c 0 -i 70 -a 0 -x {0.0 1.0 36 ------- null}
- -t 0.623808 -s 0 -d 1 -p tcp -e 4300 -c 0 -i 70 -a 0 -x {0.0 1.0 36 ------- null}
h -t 0.623808 -s 0 -d 1 -p tcp -e 4300 -c 0 -i 70 -a 0 -x {0.0 1.0 -1 ------- null}
r -t 0.625368 -s 0 -d 1 -p tcp -e 4300 -c 0 -i 66 -a 0 -x {0.0 1.0 34 ------- null}
+ -t 0.625368 -s 1 -d 0 -p ack -e 40 -c 0 -i 71 -a 0 -x {1.0 0.0 34 ------- null}
- -t 0.625368 -s 1 -d 0 -p ack -e 40 -c 0 -i 71 -a 0 -x {1.0 0.0 34 ------- null}
h -t 0.625368 -s 1 -d 0 -p ack -e 40 -c 0 -i 71 -a 0 -x {1.0 0.0 -1 ------- null}
r -t 0.62696 -s 1 -d 0 -p ack -e 40 -c 0 -i 69 -a 0 -x {1.0 0.0 33 ------- null}
+ -t 0.62696 -s 0 -d 1 -p tcp -e 4300 -c 0 -i 72 -a 0 -x {0.0 1.0 37 ------- null}
- -t 0.627248 -s 0 -d 1 -p tcp -e 4300 -c 0 -i 72 -a 0 -x {0.0 1.0 37 ------- null}
h -t 0.627248 -s 0 -d 1 -p tcp -e 4300 -c 0 -i 72 -a 0 -x {0.0 1.0 -1 ------- null}
r -t 0.628808 -s 0 -d 1 -p tcp -e 4300 -c 0 -i 68 -a 0 -x {0.0 1.0 35 ------- null}
+ -t 0.628808 -s 1 -d 0 -p ack -e 40 -c 0 -i 73 -a 0 -x {1.0 0.0 35 ------- null}
- -t 0.628808 -s 1 -d 0 -p ack -e 40 -c 0 -i 73 -a 0 -x {1.0 0.0 35 ------- null}
h -t 0.628808 -s 1 -d 0 -p ack -e 40 -c 0 -i 73 -a 0 -x {1.0 0.0 -1 ------- null}
r -t 0.6304 -s 1 -d 0 -p ack -e 40 -c 0 -i 71 -a 0 -x {1.0 0.0 34 ------- null}
+ -t 0.6304 -s 0 -d 1 -p tcp -e 4300 -c 0 -i 74 -a 0 -x {0.0 1.0 38 ------- null}
- -t 0.630688 -s 0 -d 1 -p tcp -e 4300 -c 0 -i 74 -a 0 -x {0.0 1.0 38 ------- null}
h -t 0.630688 -s 0 -d 1 -p tcp -e 4300 -c 0 -i 74 -a 0 -x {0.0 1.0 -1 ------- null}
r -t 0.632248 -s 0 -d 1 -p tcp -e 4300 -c 0 -i 70 -a 0 -x {0.0 1.0 36 ------- null}
+ -t 0.632248 -s 1 -d 0 -p ack -e 40 -c 0 -i 75 -a 0 -x {1.0 0.0 36 ------- null}
- -t 0.632248 -s 1 -d 0 -p ack -e 40 -c 0 -i 75 -a 0 -x {1.0 0.0 36 ------- null}
h -t 0.632248 -s 1 -d 0 -p ack -e 40 -c 0 -i 75 -a 0 -x {1.0 0.0 -1 ------- null}
r -t 0.63384 -s 1 -d 0 -p ack -e 40 -c 0 -i 73 -a 0 -x {1.0 0.0 35 ------- null}
+ -t 0.63384 -s 0 -d 1 -p tcp -e 4300 -c 0 -i 76 -a 0 -x {0.0 1.0 39 ------- null}
- -t 0.634128 -s 0 -d 1 -p tcp -e 4300 -c 0 -i 76 -a 0 -x {0.0 1.0 39 ------- null}
h -t 0.634128 -s 0 -d 1 -p tcp -e 4300 -c 0 -i 76 -a 0 -x {0.0 1.0 -1 ------- null}
r -t 0.635688 -s 0 -d 1 -p tcp -e 4300 -c 0 -i 72 -a 0 -x {0.0 1.0 37 ------- null}
+ -t 0.635688 -s 1 -d 0 -p ack -e 40 -c 0 -i 77 -a 0 -x {1.0 0.0 37 ------- null}
- -t 0.635688 -s 1 -d 0 -p ack -e 40 -c 0 -i 77 -a 0 -x {1.0 0.0 37 ------- null}
h -t 0.635688 -s 1 -d 0 -p ack -e 40 -c 0 -i 77 -a 0 -x {1.0 0.0 -1 ------- null}
r -t 0.63728 -s 1 -d 0 -p ack -e 40 -c 0 -i 75 -a 0 -x {1.0 0.0 36 ------- null}
+ -t 0.63728 -s 0 -d 1 -p tcp -e 4300 -c 0 -i 78 -a 0 -x {0.0 1.0 40 ------- null}
- -t 0.637568 -s 0 -d 1 -p tcp -e 4300 -c 0 -i 78 -a 0 -x {0.0 1.0 40 ------- null}
h -t 0.637568 -s 0 -d 1 -p tcp -e 4300 -c 0 -i 78 -a 0 -x {0.0 1.0 -1 ------- null}
r -t 0.639128 -s 0 -d 1 -p tcp -e 4300 -c 0 -i 74 -a 0 -x {0.0 1.0 38 ------- null}
+ -t 0.639128 -s 1 -d 0 -p ack -e 40 -c 0 -i 79 -a 0 -x {1.0 0.0 38 ------- null}
- -t 0.639128 -s 1 -d 0 -p ack -e 40 -c 0 -i 79 -a 0 -x {1.0 0.0 38 ------- null}
h -t 0.639128 -s 1 -d 0 -p ack -e 40 -c 0 -i 79 -a 0 -x {1.0 0.0 -1 ------- null}
r -t 0.64072 -s 1 -d 0 -p ack -e 40 -c 0 -i 77 -a 0 -x {1.0 0.0 37 ------- null}
+ -t 0.64072 -s 0 -d 1 -p tcp -e 4300 -c 0 -i 80 -a 0 -x {0.0 1.0 41 ------- null}
- -t 0.641008 -s 0 -d 1 -p tcp -e 4300 -c 0 -i 80 -a 0 -x {0.0 1.0 41 ------- null}
h -t 0.641008 -s 0 -d 1 -p tcp -e 4300 -c 0 -i 80 -a 0 -x {0.0 1.0 -1 ------- null}
r -t 0.642568 -s 0 -d 1 -p tcp -e 4300 -c 0 -i 76 -a 0 -x {0.0 1.0 39 ------- null}
+ -t 0.642568 -s 1 -d 0 -p ack -e 40 -c 0 -i 81 -a 0 -x {1.0 0.0 39 ------- null}
- -t 0.642568 -s 1 -d 0 -p ack -e 40 -c 0 -i 81 -a 0 -x {1.0 0.0 39 ------- null}
h -t 0.642568 -s 1 -d 0 -p ack -e 40 -c 0 -i 81 -a 0 -x {1.0 0.0 -1 ------- null}
r -t 0.64416 -s 1 -d 0 -p ack -e 40 -c 0 -i 79 -a 0 -x {1.0 0.0 38 ------- null}
+ -t 0.64416 -s 0 -d 1 -p tcp -e 4300 -c 0 -i 82 -a 0 -x {0.0 1.0 42 ------- null}
- -t 0.644448 -s 0 -d 1 -p tcp -e 4300 -c 0 -i 82 -a 0 -x {0.0 1.0 42 ------- null}
h -t 0.644448 -s 0 -d 1 -p tcp -e 4300 -c 0 -i 82 -a 0 -x {0.0 1.0 -1 ------- null}
r -t 0.646008 -s 0 -d 1 -p tcp -e 4300 -c 0 -i 78 -a 0 -x {0.0 1.0 40 ------- null}
+ -t 0.646008 -s 1 -d 0 -p ack -e 40 -c 0 -i 83 -a 0 -x {1.0 0.0 40 ------- null}
- -t 0.646008 -s 1 -d 0 -p ack -e 40 -c 0 -i 83 -a 0 -x {1.0 0.0 40 ------- null}
h -t 0.646008 -s 1 -d 0 -p ack -e 40 -c 0 -i 83 -a 0 -x {1.0 0.0 -1 ------- null}
r -t 0.6476 -s 1 -d 0 -p ack -e 40 -c 0 -i 81 -a 0 -x {1.0 0.0 39 ------- null}
+ -t 0.6476 -s 0 -d 1 -p tcp -e 4300 -c 0 -i 84 -a 0 -x {0.0 1.0 43 ------- null}
- -t 0.647888 -s 0 -d 1 -p tcp -e 4300 -c 0 -i 84 -a 0 -x {0.0 1.0 43 ------- null}
h -t 0.647888 -s 0 -d 1 -p tcp -e 4300 -c 0 -i 84 -a 0 -x {0.0 1.0 -1 ------- null}
r -t 0.649448 -s 0 -d 1 -p tcp -e 4300 -c 0 -i 80 -a 0 -x {0.0 1.0 41 ------- null}
+ -t 0.649448 -s 1 -d 0 -p ack -e 40 -c 0 -i 85 -a 0 -x {1.0 0.0 41 ------- null}
- -t 0.649448 -s 1 -d 0 -p ack -e 40 -c 0 -i 85 -a 0 -x {1.0 0.0 41 ------- null}
h -t 0.649448 -s 1 -d 0 -p ack -e 40 -c 0 -i 85 -a 0 -x {1.0 0.0 -1 ------- null}
r -t 0.65104 -s 1 -d 0 -p ack -e 40 -c 0 -i 83 -a 0 -x {1.0 0.0 40 ------- null}
+ -t 0.65104 -s 0 -d 1 -p tcp -e 4300 -c 0 -i 86 -a 0 -x {0.0 1.0 44 ------- null}
- -t 0.651328 -s 0 -d 1 -p tcp -e 4300 -c 0 -i 86 -a 0 -x {0.0 1.0 44 ------- null}
h -t 0.651328 -s 0 -d 1 -p tcp -e 4300 -c 0 -i 86 -a 0 -x {0.0 1.0 -1 ------- null}
r -t 0.652888 -s 0 -d 1 -p tcp -e 4300 -c 0 -i 82 -a 0 -x {0.0 1.0 42 ------- null}
+ -t 0.652888 -s 1 -d 0 -p ack -e 40 -c 0 -i 87 -a 0 -x {1.0 0.0 42 ------- null}
- -t 0.652888 -s 1 -d 0 -p ack -e 40 -c 0 -i 87 -a 0 -x {1.0 0.0 42 ------- null}
h -t 0.652888 -s 1 -d 0 -p ack -e 40 -c 0 -i 87 -a 0 -x {1.0 0.0 -1 ------- null}
r -t 0.65448 -s 1 -d 0 -p ack -e 40 -c 0 -i 85 -a 0 -x {1.0 0.0 41 ------- null}
+ -t 0.65448 -s 0 -d 1 -p tcp -e 4300 -c 0 -i 88 -a 0 -x {0.0 1.0 45 ------- null}
- -t 0.654768 -s 0 -d 1 -p tcp -e 4300 -c 0 -i 88 -a 0 -x {0.0 1.0 45 ------- null}
h -t 0.654768 -s 0 -d 1 -p tcp -e 4300 -c 0 -i 88 -a 0 -x {0.0 1.0 -1 ------- null}
r -t 0.656328 -s 0 -d 1 -p tcp -e 4300 -c 0 -i 84 -a 0 -x {0.0 1.0 43 ------- null}
+ -t 0.656328 -s 1 -d 0 -p ack -e 40 -c 0 -i 89 -a 0 -x {1.0 0.0 43 ------- null}
- -t 0.656328 -s 1 -d 0 -p ack -e 40 -c 0 -i 89 -a 0 -x {1.0 0.0 43 ------- null}
h -t 0.656328 -s 1 -d 0 -p ack -e 40 -c 0 -i 89 -a 0 -x {1.0 0.0 -1 ------- null}
r -t 0.65792 -s 1 -d 0 -p ack -e 40 -c 0 -i 87 -a 0 -x {1.0 0.0 42 ------- null}
+ -t 0.65792 -s 0 -d 1 -p tcp -e 4300 -c 0 -i 90 -a 0 -x {0.0 1.0 46 ------- null}
- -t 0.658208 -s 0 -d 1 -p tcp -e 4300 -c 0 -i 90 -a 0 -x {0.0 1.0 46 ------- null}