V -t * -v 1.0a5 -a 0
A -t * -n 1 -p 0 -o 0x7fffffff -c 30 -a 1
A -t * -h 1 -m 1073741823 -s 0
n -t * -a 0 -s 0 -S UP -v circle -c black -i black
n -t * -a 1 -s 1 -S UP -v circle -c black -i black
l -t * -s 0 -d 1 -S UP -r 10000000 -D 0.0050000000000000001 -c black
n -t 0 -s 0 -S DLABEL -l "SRP_sender" -L ""
n -t 0 -s 1 -S DLABEL -l "SRP_reciever" -L ""
+ -t 0.5 -s 0 -d 1 -p tcp -e 1500 -c 0 -i 0 -a 0 -x {0.0 1.0 0 ------- null}
- -t 0.5 -s 0 -d 1 -p tcp -e 1500 -c 0 -i 0 -a 0 -x {0.0 1.0 0 ------- null}
h -t 0.5 -s 0 -d 1 -p tcp -e 1500 -c 0 -i 0 -a 0 -x {0.0 1.0 -1 ------- null}
+ -t 0.5 -s 0 -d 1 -p tcp -e 1540 -c 0 -i 1 -a 0 -x {0.0 1.0 1 ------- null}
+ -t 0.5 -s 0 -d 1 -p tcp -e 1540 -c 0 -i 2 -a 0 -x {0.0 1.0 2 ------- null}
+ -t 0.5 -s 0 -d 1 -p tcp -e 1540 -c 0 -i 3 -a 0 -x {0.0 1.0 3 ------- null}
- -t 0.5012 -s 0 -d 1 -p tcp -e 1540 -c 0 -i 1 -a 0 -x {0.0 1.0 1 ------- null}
h -t 0.5012 -s 0 -d 1 -p tcp -e 1540 -c 0 -i 1 -a 0 -x {0.0 1.0 -1 ------- null}
- -t 0.502432 -s 0 -d 1 -p tcp -e 1540 -c 0 -i 2 -a 0 -x {0.0 1.0 2 ------- null}
h -t 0.502432 -s 0 -d 1 -p tcp -e 1540 -c 0 -i 2 -a 0 -x {0.0 1.0 -1 ------- null}
- -t 0.503664 -s 0 -d 1 -p tcp -e 1540 -c 0 -i 3 -a 0 -x {0.0 1.0 3 ------- null}
h -t 0.503664 -s 0 -d 1 -p tcp -e 1540 -c 0 -i 3 -a 0 -x {0.0 1.0 -1 ------- null}
r -t 0.5062 -s 0 -d 1 -p tcp -e 1500 -c 0 -i 0 -a 0 -x {0.0 1.0 0 ------- null}
+ -t 0.5062 -s 1 -d 0 -p ack -e 40 -c 0 -i 4 -a 0 -x {1.0 0.0 0 ------- null}
- -t 0.5062 -s 1 -d 0 -p ack -e 40 -c 0 -i 4 -a 0 -x {1.0 0.0 0 ------- null}
h -t 0.5062 -s 1 -d 0 -p ack -e 40 -c 0 -i 4 -a 0 -x {1.0 0.0 -1 ------- null}
r -t 0.507432 -s 0 -d 1 -p tcp -e 1540 -c 0 -i 1 -a 0 -x {0.0 1.0 1 ------- null}
+ -t 0.507432 -s 1 -d 0 -p ack -e 40 -c 0 -i 5 -a 0 -x {1.0 0.0 1 ------- null}
- -t 0.507432 -s 1 -d 0 -p ack -e 40 -c 0 -i 5 -a 0 -x {1.0 0.0 1 ------- null}
h -t 0.507432 -s 1 -d 0 -p ack -e 40 -c 0 -i 5 -a 0 -x {1.0 0.0 -1 ------- null}
r -t 0.508664 -s 0 -d 1 -p tcp -e 1540 -c 0 -i 2 -a 0 -x {0.0 1.0 2 ------- null}
+ -t 0.508664 -s 1 -d 0 -p ack -e 40 -c 0 -i 6 -a 0 -x {1.0 0.0 2 ------- null}
- -t 0.508664 -s 1 -d 0 -p ack -e 40 -c 0 -i 6 -a 0 -x {1.0 0.0 2 ------- null}
h -t 0.508664 -s 1 -d 0 -p ack -e 40 -c 0 -i 6 -a 0 -x {1.0 0.0 -1 ------- null}
r -t 0.509896 -s 0 -d 1 -p tcp -e 1540 -c 0 -i 3 -a 0 -x {0.0 1.0 3 ------- null}
+ -t 0.509896 -s 1 -d 0 -p ack -e 40 -c 0 -i 7 -a 0 -x {1.0 0.0 3 ------- null}
- -t 0.509896 -s 1 -d 0 -p ack -e 40 -c 0 -i 7 -a 0 -x {1.0 0.0 3 ------- null}
h -t 0.509896 -s 1 -d 0 -p ack -e 40 -c 0 -i 7 -a 0 -x {1.0 0.0 -1 ------- null}
r -t 0.511232 -s 1 -d 0 -p ack -e 40 -c 0 -i 4 -a 0 -x {1.0 0.0 0 ------- null}
+ -t 0.511232 -s 0 -d 1 -p tcp -e 1540 -c 0 -i 8 -a 0 -x {0.0 1.0 4 ------- null}
- -t 0.511232 -s 0 -d 1 -p tcp -e 1540 -c 0 -i 8 -a 0 -x {0.0 1.0 4 ------- null}
h -t 0.511232 -s 0 -d 1 -p tcp -e 1540 -c 0 -i 8 -a 0 -x {0.0 1.0 -1 ------- null}
r -t 0.512464 -s 1 -d 0 -p ack -e 40 -c 0 -i 5 -a 0 -x {1.0 0.0 1 ------- null}
+ -t 0.512464 -s 0 -d 1 -p tcp -e 1540 -c 0 -i 9 -a 0 -x {0.0 1.0 5 ------- null}
- -t 0.512464 -s 0 -d 1 -p tcp -e 1540 -c 0 -i 9 -a 0 -x {0.0 1.0 5 ------- null}
h -t 0.512464 -s 0 -d 1 -p tcp -e 1540 -c 0 -i 9 -a 0 -x {0.0 1.0 -1 ------- null}
r -t 0.513696 -s 1 -d 0 -p ack -e 40 -c 0 -i 6 -a 0 -x {1.0 0.0 2 ------- null}
+ -t 0.513696 -s 0 -d 1 -p tcp -e 1540 -c 0 -i 10 -a 0 -x {0.0 1.0 6 ------- null}
- -t 0.513696 -s 0 -d 1 -p tcp -e 1540 -c 0 -i 10 -a 0 -x {0.0 1.0 6 ------- null}
h -t 0.513696 -s 0 -d 1 -p tcp -e 1540 -c 0 -i 10 -a 0 -x {0.0 1.0 -1 ------- null}
r -t 0.514928 -s 1 -d 0 -p ack -e 40 -c 0 -i 7 -a 0 -x {1.0 0.0 3 ------- null}
+ -t 0.514928 -s 0 -d 1 -p tcp -e 1540 -c 0 -i 11 -a 0 -x {0.0 1.0 7 ------- null}
- -t 0.514928 -s 0 -d 1 -p tcp -e 1540 -c 0 -i 11 -a 0 -x {0.0 1.0 7 ------- null}
h -t 0.514928 -s 0 -d 1 -p tcp -e 1540 -c 0 -i 11 -a 0 -x {0.0 1.0 -1 ------- null}
r -t 0.517464 -s 0 -d 1 -p tcp -e 1540 -c 0 -i 8 -a 0 -x {0.0 1.0 4 ------- null}
+ -t 0.517464 -s 1 -d 0 -p ack -e 40 -c 0 -i 12 -a 0 -x {1.0 0.0 4 ------- null}
- -t 0.517464 -s 1 -d 0 -p ack -e 40 -c 0 -i 12 -a 0 -x {1.0 0.0 4 ------- null}
h -t 0.517464 -s 1 -d 0 -p ack -e 40 -c 0 -i 12 -a 0 -x {1.0 0.0 -1 ------- null}
r -t 0.518696 -s 0 -d 1 -p tcp -e 1540 -c 0 -i 9 -a 0 -x {0.0 1.0 5 ------- null}
+ -t 0.518696 -s 1 -d 0 -p ack -e 40 -c 0 -i 13 -a 0 -x {1.0 0.0 5 ------- null}
- -t 0.518696 -s 1 -d 0 -p ack -e 40 -c 0 -i 13 -a 0 -x {1.0 0.0 5 ------- null}
h -t 0.518696 -s 1 -d 0 -p ack -e 40 -c 0 -i 13 -a 0 -x {1.0 0.0 -1 ------- null}
r -t 0.519928 -s 0 -d 1 -p tcp -e 1540 -c 0 -i 10 -a 0 -x {0.0 1.0 6 ------- null}
+ -t 0.519928 -s 1 -d 0 -p ack -e 40 -c 0 -i 14 -a 0 -x {1.0 0.0 6 ------- null}
- -t 0.519928 -s 1 -d 0 -p ack -e 40 -c 0 -i 14 -a 0 -x {1.0 0.0 6 ------- null}
h -t 0.519928 -s 1 -d 0 -p ack -e 40 -c 0 -i 14 -a 0 -x {1.0 0.0 -1 ------- null}
r -t 0.52116 -s 0 -d 1 -p tcp -e 1540 -c 0 -i 11 -a 0 -x {0.0 1.0 7 ------- null}
+ -t 0.52116 -s 1 -d 0 -p ack -e 40 -c 0 -i 15 -a 0 -x {1.0 0.0 7 ------- null}
- -t 0.52116 -s 1 -d 0 -p ack -e 40 -c 0 -i 15 -a 0 -x {1.0 0.0 7 ------- null}
h -t 0.52116 -s 1 -d 0 -p ack -e 40 -c 0 -i 15 -a 0 -x {1.0 0.0 -1 ------- null}
r -t 0.522496 -s 1 -d 0 -p ack -e 40 -c 0 -i 12 -a 0 -x {1.0 0.0 4 ------- null}
+ -t 0.522496 -s 0 -d 1 -p tcp -e 1540 -c 0 -i 16 -a 0 -x {0.0 1.0 8 ------- null}
- -t 0.522496 -s 0 -d 1 -p tcp -e 1540 -c 0 -i 16 -a 0 -x {0.0 1.0 8 ------- null}
h -t 0.522496 -s 0 -d 1 -p tcp -e 1540 -c 0 -i 16 -a 0 -x {0.0 1.0 -1 ------- null}
r -t 0.523728 -s 1 -d 0 -p ack -e 40 -c 0 -i 13 -a 0 -x {1.0 0.0 5 ------- null}
+ -t 0.523728 -s 0 -d 1 -p tcp -e 1540 -c 0 -i 17 -a 0 -x {0.0 1.0 9 ------- null}
- -t 0.523728 -s 0 -d 1 -p tcp -e 1540 -c 0 -i 17 -a 0 -x {0.0 1.0 9 ------- null}
h -t 0.523728 -s 0 -d 1 -p tcp -e 1540 -c 0 -i 17 -a 0 -x {0.0 1.0 -1 ------- null}
r -t 0.52496 -s 1 -d 0 -p ack -e 40 -c 0 -i 14 -a 0 -x {1.0 0.0 6 ------- null}
+ -t 0.52496 -s 0 -d 1 -p tcp -e 1540 -c 0 -i 18 -a 0 -x {0.0 1.0 10 ------- null}
- -t 0.52496 -s 0 -d 1 -p tcp -e 1540 -c 0 -i 18 -a 0 -x {0.0 1.0 10 ------- null}
h -t 0.52496 -s 0 -d 1 -p tcp -e 1540 -c 0 -i 18 -a 0 -x {0.0 1.0 -1 ------- null}
r -t 0.526192 -s 1 -d 0 -p ack -e 40 -c 0 -i 15 -a 0 -x {1.0 0.0 7 ------- null}
+ -t 0.526192 -s 0 -d 1 -p tcp -e 1540 -c 0 -i 19 -a 0 -x {0.0 1.0 11 ------- null}
- -t 0.526192 -s 0 -d 1 -p tcp -e 1540 -c 0 -i 19 -a 0 -x {0.0 1.0 11 ------- null}
h -t 0.526192 -s 0 -d 1 -p tcp -e 1540 -c 0 -i 19 -a 0 -x {0.0 1.0 -1 ------- null}
r -t 0.528728 -s 0 -d 1 -p tcp -e 1540 -c 0 -i 16 -a 0 -x {0.0 1.0 8 ------- null}
+ -t 0.528728 -s 1 -d 0 -p ack -e 40 -c 0 -i 20 -a 0 -x {1.0 0.0 8 ------- null}
- -t 0.528728 -s 1 -d 0 -p ack -e 40 -c 0 -i 20 -a 0 -x {1.0 0.0 8 ------- null}
h -t 0.528728 -s 1 -d 0 -p ack -e 40 -c 0 -i 20 -a 0 -x {1.0 0.0 -1 ------- null}
r -t 0.52996 -s 0 -d 1 -p tcp -e 1540 -c 0 -i 17 -a 0 -x {0.0 1.0 9 ------- null}
+ -t 0.52996 -s 1 -d 0 -p ack -e 40 -c 0 -i 21 -a 0 -x {1.0 0.0 9 ------- null}
- -t 0.52996 -s 1 -d 0 -p ack -e 40 -c 0 -i 21 -a 0 -x {1.0 0.0 9 ------- null}
h -t 0.52996 -s 1 -d 0 -p ack -e 40 -c 0 -i 21 -a 0 -x {1.0 0.0 -1 ------- null}
r -t 0.531192 -s 0 -d 1 -p tcp -e 1540 -c 0 -i 18 -a 0 -x {0.0 1.0 10 ------- null}
+ -t 0.531192 -s 1 -d 0 -p ack -e 40 -c 0 -i 22 -a 0 -x {1.0 0.0 10 ------- null}
- -t 0.531192 -s 1 -d 0 -p ack -e 40 -c 0 -i 22 -a 0 -x {1.0 0.0 10 ------- null}
h -t 0.531192 -s 1 -d 0 -p ack -e 40 -c 0 -i 22 -a 0 -x {1.0 0.0 -1 ------- null}
r -t 0.532424 -s 0 -d 1 -p tcp -e 1540 -c 0 -i 19 -a 0 -x {0.0 1.0 11 ------- null}
+ -t 0.532424 -s 1 -d 0 -p ack -e 40 -c 0 -i 23 -a 0 -x {1.0 0.0 11 ------- null}
- -t 0.532424 -s 1 -d 0 -p ack -e 40 -c 0 -i 23 -a 0 -x {1.0 0.0 11 ------- null}
h -t 0.532424 -s 1 -d 0 -p ack -e 40 -c 0 -i 23 -a 0 -x {1.0 0.0 -1 ------- null}
r -t 0.53376 -s 1 -d 0 -p ack -e 40 -c 0 -i 20 -a 0 -x {1.0 0.0 8 ------- null}
+ -t 0.53376 -s 0 -d 1 -p tcp -e 1540 -c 0 -i 24 -a 0 -x {0.0 1.0 12 ------- null}
- -t 0.53376 -s 0 -d 1 -p tcp -e 1540 -c 0 -i 24 -a 0 -x {0.0 1.0 12 ------- null}
h -t 0.53376 -s 0 -d 1 -p tcp -e 1540 -c 0 -i 24 -a 0 -x {0.0 1.0 -1 ------- null}
r -t 0.534992 -s 1 -d 0 -p ack -e 40 -c 0 -i 21 -a 0 -x {1.0 0.0 9 ------- null}
+ -t 0.534992 -s 0 -d 1 -p tcp -e 1540 -c 0 -i 25 -a 0 -x {0.0 1.0 13 ------- null}
- -t 0.534992 -s 0 -d 1 -p tcp -e 1540 -c 0 -i 25 -a 0 -x {0.0 1.0 13 ------- null}
h -t 0.534992 -s 0 -d 1 -p tcp -e 1540 -c 0 -i 25 -a 0 -x {0.0 1.0 -1 ------- null}
r -t 0.536224 -s 1 -d 0 -p ack -e 40 -c 0 -i 22 -a 0 -x {1.0 0.0 10 ------- null}
+ -t 0.536224 -s 0 -d 1 -p tcp -e 1540 -c 0 -i 26 -a 0 -x {0.0 1.0 14 ------- null}
- -t 0.536224 -s 0 -d 1 -p tcp -e 1540 -c 0 -i 26 -a 0 -x {0.0 1.0 14 ------- null}
h -t 0.536224 -s 0 -d 1 -p tcp -e 1540 -c 0 -i 26 -a 0 -x {0.0 1.0 -1 ------- null}
r -t 0.537456 -s 1 -d 0 -p ack -e 40 -c 0 -i 23 -a 0 -x {1.0 0.0 11 ------- null}
+ -t 0.537456 -s 0 -d 1 -p tcp -e 1540 -c 0 -i 27 -a 0 -x {0.0 1.0 15 ------- null}
- -t 0.537456 -s 0 -d 1 -p tcp -e 1540 -c 0 -i 27 -a 0 -x {0.0 1.0 15 ------- null}
h -t 0.537456 -s 0 -d 1 -p tcp -e 1540 -c 0 -i 27 -a 0 -x {0.0 1.0 -1 ------- null}
r -t 0.539992 -s 0 -d 1 -p tcp -e 1540 -c 0 -i 24 -a 0 -x {0.0 1.0 12 ------- null}
+ -t 0.539992 -s 1 -d 0 -p ack -e 40 -c 0 -i 28 -a 0 -x {1.0 0.0 12 ------- null}
- -t 0.539992 -s 1 -d 0 -p ack -e 40 -c 0 -i 28 -a 0 -x {1.0 0.0 12 ------- null}
h -t 0.539992 -s 1 -d 0 -p ack -e 40 -c 0 -i 28 -a 0 -x {1.0 0.0 -1 ------- null}
r -t 0.541224 -s 0 -d 1 -p tcp -e 1540 -c 0 -i 25 -a 0 -x {0.0 1.0 13 ------- null}
+ -t 0.541224 -s 1 -d 0 -p ack -e 40 -c 0 -i 29 -a 0 -x {1.0 0.0 13 ------- null}
- -t 0.541224 -s 1 -d 0 -p ack -e 40 -c 0 -i 29 -a 0 -x {1.0 0.0 13 ------- null}
h -t 0.541224 -s 1 -d 0 -p ack -e 40 -c 0 -i 29 -a 0 -x {1.0 0.0 -1 ------- null}
r -t 0.542456 -s 0 -d 1 -p tcp -e 1540 -c 0 -i 26 -a 0 -x {0.0 1.0 14 ------- null}
+ -t 0.542456 -s 1 -d 0 -p ack -e 40 -c 0 -i 30 -a 0 -x {1.0 0.0 14 ------- null}
- -t 0.542456 -s 1 -d 0 -p ack -e 40 -c 0 -i 30 -a 0 -x {1.0 0.0 14 ------- null}
h -t 0.542456 -s 1 -d 0 -p ack -e 40 -c 0 -i 30 -a 0 -x {1.0 0.0 -1 ------- null}
r -t 0.543688 -s 0 -d 1 -p tcp -e 1540 -c 0 -i 27 -a 0 -x {0.0 1.0 15 ------- null}
+ -t 0.543688 -s 1 -d 0 -p ack -e 40 -c 0 -i 31 -a 0 -x {1.0 0.0 15 ------- null}
- -t 0.543688 -s 1 -d 0 -p ack -e 40 -c 0 -i 31 -a 0 -x {1.0 0.0 15 ------- null}
h -t 0.543688 -s 1 -d 0 -p ack -e 40 -c 0 -i 31 -a 0 -x {1.0 0.0 -1 ------- null}
r -t 0.545024 -s 1 -d 0 -p ack -e 40 -c 0 -i 28 -a 0 -x {1.0 0.0 12 ------- null}
+ -t 0.545024 -s 0 -d 1 -p tcp -e 1540 -c 0 -i 32 -a 0 -x {0.0 1.0 16 ------- null}
- -t 0.545024 -s 0 -d 1 -p tcp -e 1540 -c 0 -i 32 -a 0 -x {0.0 1.0 16 ------- null}
h -t 0.545024 -s 0 -d 1 -p tcp -e 1540 -c 0 -i 32 -a 0 -x {0.0 1.0 -1 ------- null}
r -t 0.546256 -s 1 -d 0 -p ack -e 40 -c 0 -i 29 -a 0 -x {1.0 0.0 13 ------- null}
+ -t 0.546256 -s 0 -d 1 -p tcp -e 1540 -c 0 -i 33 -a 0 -x {0.0 1.0 17 ------- null}
- -t 0.546256 -s 0 -d 1 -p tcp -e 1540 -c 0 -i 33 -a 0 -x {0.0 1.0 17 ------- null}
h -t 0.546256 -s 0 -d 1 -p tcp -e 1540 -c 0 -i 33 -a 0 -x {0.0 1.0 -1 ------- null}
r -t 0.547488 -s 1 -d 0 -p ack -e 40 -c 0 -i 30 -a 0 -x {1.0 0.0 14 ------- null}
+ -t 0.547488 -s 0 -d 1 -p tcp -e 1540 -c 0 -i 34 -a 0 -x {0.0 1.0 18 ------- null}
- -t 0.547488 -s 0 -d 1 -p tcp -e 1540 -c 0 -i 34 -a 0 -x {0.0 1.0 18 ------- null}
h -t 0.547488 -s 0 -d 1 -p tcp -e 1540 -c 0 -i 34 -a 0 -x {0.0 1.0 -1 ------- null}
r -t 0.54872 -s 1 -d 0 -p ack -e 40 -c 0 -i 31 -a 0 -x {1.0 0.0 15 ------- null}
+ -t 0.54872 -s 0 -d 1 -p tcp -e 1540 -c 0 -i 35 -a 0 -x {0.0 1.0 19 ------- null}
- -t 0.54872 -s 0 -d 1 -p tcp -e 1540 -c 0 -i 35 -a 0 -x {0.0 1.0 19 ------- null}
h -t 0.54872 -s 0 -d 1 -p tcp -e 1540 -c 0 -i 35 -a 0 -x {0.0 1.0 -1 ------- null}
r -t 0.551256 -s 0 -d 1 -p tcp -e 1540 -c 0 -i 32 -a 0 -x {0.0 1.0 16 ------- null}
+ -t 0.551256 -s 1 -d 0 -p ack -e 40 -c 0 -i 36 -a 0 -x {1.0 0.0 16 ------- null}
- -t 0.551256 -s 1 -d 0 -p ack -e 40 -c 0 -i 36 -a 0 -x {1.0 0.0 16 ------- null}
h -t 0.551256 -s 1 -d 0 -p ack -e 40 -c 0 -i 36 -a 0 -x {1.0 0.0 -1 ------- null}
r -t 0.552488 -s 0 -d 1 -p tcp -e 1540 -c 0 -i 33 -a 0 -x {0.0 1.0 17 ------- null}
+ -t 0.552488 -s 1 -d 0 -p ack -e 40 -c 0 -i 37 -a 0 -x {1.0 0.0 17 ------- null}
- -t 0.552488 -s 1 -d 0 -p ack -e 40 -c 0 -i 37 -a 0 -x {1.0 0.0 17 ------- null}
h -t 0.552488 -s 1 -d 0 -p ack -e 40 -c 0 -i 37 -a 0 -x {1.0 0.0 -1 ------- null}
r -t 0.55372 -s 0 -d 1 -p tcp -e 1540 -c 0 -i 34 -a 0 -x {0.0 1.0 18 ------- null}
+ -t 0.55372 -s 1 -d 0 -p ack -e 40 -c 0 -i 38 -a 0 -x {1.0 0.0 18 ------- null}
- -t 0.55372 -s 1 -d 0 -p ack -e 40 -c 0 -i 38 -a 0 -x {1.0 0.0 18 ------- null}
h -t 0.55372 -s 1 -d 0 -p ack -e 40 -c 0 -i 38 -a 0 -x {1.0 0.0 -1 ------- null}
r -t 0.554952 -s 0 -d 1 -p tcp -e 1540 -c 0 -i 35 -a 0 -x {0.0 1.0 19 ------- null}
+ -t 0.554952 -s 1 -d 0 -p ack -e 40 -c 0 -i 39 -a 0 -x {1.0 0.0 19 ------- null}
- -t 0.554952 -s 1 -d 0 -p ack -e 40 -c 0 -i 39 -a 0 -x {1.0 0.0 19 ------- null}
h -t 0.554952 -s 1 -d 0 -p ack -e 40 -c 0 -i 39 -a 0 -x {1.0 0.0 -1 ------- null}
r -t 0.556288 -s 1 -d 0 -p ack -e 40 -c 0 -i 36 -a 0 -x {1.0 0.0 16 ------- null}
+ -t 0.556288 -s 0 -d 1 -p tcp -e 1540 -c 0 -i 40 -a 0 -x {0.0 1.0 20 ------- null}
- -t 0.556288 -s 0 -d 1 -p tcp -e 1540 -c 0 -i 40 -a 0 -x {0.0 1.0 20 ------- null}
h -t 0.556288 -s 0 -d 1 -p tcp -e 1540 -c 0 -i 40 -a 0 -x {0.0 1.0 -1 ------- null}
r -t 0.55752 -s 1 -d 0 -p ack -e 40 -c 0 -i 37 -a 0 -x {1.0 0.0 17 ------- null}
+ -t 0.55752 -s 0 -d 1 -p tcp -e 1540 -c 0 -i 41 -a 0 -x {0.0 1.0 21 ------- null}
- -t 0.55752 -s 0 -d 1 -p tcp -e 1540 -c 0 -i 41 -a 0 -x {0.0 1.0 21 ------- null}
h -t 0.55752 -s 0 -d 1 -p tcp -e 1540 -c 0 -i 41 -a 0 -x {0.0 1.0 -1 ------- null}
r -t 0.558752 -s 1 -d 0 -p ack -e 40 -c 0 -i 38 -a 0 -x {1.0 0.0 18 ------- null}
+ -t 0.558752 -s 0 -d 1 -p tcp -e 1540 -c 0 -i 42 -a 0 -x {0.0 1.0 22 ------- null}
- -t 0.558752 -s 0 -d 1 -p tcp -e 1540 -c 0 -i 42 -a 0 -x {0.0 1.0 22 ------- null}
h -t 0.558752 -s 0 -d 1 -p tcp -e 1540 -c 0 -i 42 -a 0 -x {0.0 1.0 -1 ------- null}
r -t 0.559984 -s 1 -d 0 -p ack -e 40 -c 0 -i 39 -a 0 -x {1.0 0.0 19 ------- null}
+ -t 0.559984 -s 0 -d 1 -p tcp -e 1540 -c 0 -i 43 -a 0 -x {0.0 1.0 23 ------- null}
- -t 0.559984 -s 0 -d 1 -p tcp -e 1540 -c 0 -i 43 -a 0 -x {0.0 1.0 23 ------- null}
h -t 0.559984 -s 0 -d 1 -p tcp -e 1540 -c 0 -i 43 -a 0 -x {0.0 1.0 -1 ------- null}
r -t 0.56252 -s 0 -d 1 -p tcp -e 1540 -c 0 -i 40 -a 0 -x {0.0 1.0 20 ------- null}
+ -t 0.56252 -s 1 -d 0 -p ack -e 40 -c 0 -i 44 -a 0 -x {1.0 0.0 20 ------- null}
- -t 0.56252 -s 1 -d 0 -p ack -e 40 -c 0 -i 44 -a 0 -x {1.0 0.0 20 ------- null}
h -t 0.56252 -s 1 -d 0 -p ack -e 40 -c 0 -i 44 -a 0 -x {1.0 0.0 -1 ------- null}
r -t 0.563752 -s 0 -d 1 -p tcp -e 1540 -c 0 -i 41 -a 0 -x {0.0 1.0 21 ------- null}
+ -t 0.563752 -s 1 -d 0 -p ack -e 40 -c 0 -i 45 -a 0 -x {1.0 0.0 21 ------- null}
- -t 0.563752 -s 1 -d 0 -p ack -e 40 -c 0 -i 45 -a 0 -x {1.0 0.0 21 ------- null}
h -t 0.563752 -s 1 -d 0 -p ack -e 40 -c 0 -i 45 -a 0 -x {1.0 0.0 -1 ------- null}
r -t 0.564984 -s 0 -d 1 -p tcp -e 1540 -c 0 -i 42 -a 0 -x {0.0 1.0 22 ------- null}
+ -t 0.564984 -s 1 -d 0 -p ack -e 40 -c 0 -i 46 -a 0 -x {1.0 0.0 22 ------- null}
- -t 0.564984 -s 1 -d 0 -p ack -e 40 -c 0 -i 46 -a 0 -x {1.0 0.0 22 ------- null}
h -t 0.564984 -s 1 -d 0 -p ack -e 40 -c 0 -i 46 -a 0 -x {1.0 0.0 -1 ------- null}
r -t 0.566216 -s 0 -d 1 -p tcp -e 1540 -c 0 -i 43 -a 0 -x {0.0 1.0 23 ------- null}
+ -t 0.566216 -s 1 -d 0 -p ack -e 40 -c 0 -i 47 -a 0 -x {1.0 0.0 23 ------- null}
- -t 0.566216 -s 1 -d 0 -p ack -e 40 -c 0 -i 47 -a 0 -x {1.0 0.0 23 ------- null}
h -t 0.566216 -s 1 -d 0 -p ack -e 40 -c 0 -i 47 -a 0 -x {1.0 0.0 -1 ------- null}
r -t 0.567552 -s 1 -d 0 -p ack -e 40 -c 0 -i 44 -a 0 -x {1.0 0.0 20 ------- null}
+ -t 0.567552 -s 0 -d 1 -p tcp -e 1540 -c 0 -i 48 -a 0 -x {0.0 1.0 24 ------- null}
- -t 0.567552 -s 0 -d 1 -p tcp -e 1540 -c 0 -i 48 -a 0 -x {0.0 1.0 24 ------- null}
h -t 0.567552 -s 0 -d 1 -p tcp -e 1540 -c 0 -i 48 -a 0 -x {0.0 1.0 -1 ------- null}
r -t 0.568784 -s 1 -d 0 -p ack -e 40 -c 0 -i 45 -a 0 -x {1.0 0.0 21 ------- null}
+ -t 0.568784 -s 0 -d 1 -p tcp -e 1540 -c 0 -i 49 -a 0 -x {0.0 1.0 25 ------- null}
- -t 0.568784 -s 0 -d 1 -p tcp -e 1540 -c 0 -i 49 -a 0 -x {0.0 1.0 25 ------- null}
h -t 0.568784 -s 0 -d 1 -p tcp -e 1540 -c 0 -i 49 -a 0 -x {0.0 1.0 -1 ------- null}
r -t 0.570016 -s 1 -d 0 -p ack -e 40 -c 0 -i 46 -a 0 -x {1.0 0.0 22 ------- null}
+ -t 0.570016 -s 0 -d 1 -p tcp -e 1540 -c 0 -i 50 -a 0 -x {0.0 1.0 26 ------- null}
- -t 0.570016 -s 0 -d 1 -p tcp -e 1540 -c 0 -i 50 -a 0 -x {0.0 1.0 26 ------- null}
h -t 0.570016 -s 0 -d 1 -p tcp -e 1540 -c 0 -i 50 -a 0 -x {0.0 1.0 -1 ------- null}
r -t 0.571248 -s 1 -d 0 -p ack -e 40 -c 0 -i 47 -a 0 -x {1.0 0.0 23 ------- null}
+ -t 0.571248 -s 0 -d 1 -p tcp -e 1540 -c 0 -i 51 -a 0 -x {0.0 1.0 27 ------- null}
- -t 0.571248 -s 0 -d 1 -p tcp -e 1540 -c 0 -i 51 -a 0 -x {0.0 1.0 27 ------- null}
h -t 0.571248 -s 0 -d 1 -p tcp -e 1540 -c 0 -i 51 -a 0 -x {0.0 1.0 -1 ------- null}
r -t 0.573784 -s 0 -d 1 -p tcp -e 1540 -c 0 -i 48 -a 0 -x {0.0 1.0 24 ------- null}
+ -t 0.573784 -s 1 -d 0 -p ack -e 40 -c 0 -i 52 -a 0 -x {1.0 0.0 24 ------- null}
- -t 0.573784 -s 1 -d 0 -p ack -e 40 -c 0 -i 52 -a 0 -x {1.0 0.0 24 ------- null}
h -t 0.573784 -s 1 -d 0 -p ack -e 40 -c 0 -i 52 -a 0 -x {1.0 0.0 -1 ------- null}
r -t 0.575016 -s 0 -d 1 -p tcp -e 1540 -c 0 -i 49 -a 0 -x {0.0 1.0 25 ------- null}
+ -t 0.575016 -s 1 -d 0 -p ack -e 40 -c 0 -i 53 -a 0 -x {1.0 0.0 25 ------- null}
- -t 0.575016 -s 1 -d 0 -p ack -e 40 -c 0 -i 53 -a 0 -x {1.0 0.0 25 ------- null}
h -t 0.575016 -s 1 -d 0 -p ack -e 40 -c 0 -i 53 -a 0 -x {1.0 0.0 -1 ------- null}
r -t 0.576248 -s 0 -d 1 -p tcp -e 1540 -c 0 -i 50 -a 0 -x {0.0 1.0 26 ------- null}
+ -t 0.576248 -s 1 -d 0 -p ack -e 40 -c 0 -i 54 -a 0 -x {1.0 0.0 26 ------- null}
- -t 0.576248 -s 1 -d 0 -p ack -e 40 -c 0 -i 54 -a 0 -x {1.0 0.0 26 ------- null}
h -t 0.576248 -s 1 -d 0 -p ack -e 40 -c 0 -i 54 -a 0 -x {1.0 0.0 -1 ------- null}
r -t 0.57748 -s 0 -d 1 -p tcp -e 1540 -c 0 -i 51 -a 0 -x {0.0 1.0 27 ------- null}
+ -t 0.57748 -s 1 -d 0 -p ack -e 40 -c 0 -i 55 -a 0 -x {1.0 0.0 27 ------- null}
- -t 0.57748 -s 1 -d 0 -p ack -e 40 -c 0 -i 55 -a 0 -x {1.0 0.0 27 ------- null}
h -t 0.57748 -s 1 -d 0 -p ack -e 40 -c 0 -i 55 -a 0 -x {1.0 0.0 -1 ------- null}
r -t 0.578816 -s 1 -d 0 -p ack -e 40 -c 0 -i 52 -a 0 -x {1.0 0.0 24 ------- null}
+ -t 0.578816 -s 0 -d 1 -p tcp -e 1540 -c 0 -i 56 -a 0 -x {0.0 1.0 28 ------- null}
- -t 0.578816 -s 0 -d 1 -p tcp -e 1540 -c 0 -i 56 -a 0 -x {0.0 1.0 28 ------- null}
h -t 0.578816 -s 0 -d 1 -p tcp -e 1540 -c 0 -i 56 -a 0 -x {0.0 1.0 -1 ------- null}
r -t 0.580048 -s 1 -d 0 -p ack -e 40 -c 0 -i 53 -a 0 -x {1.0 0.0 25 ------- null}
+ -t 0.580048 -s 0 -d 1 -p tcp -e 1540 -c 0 -i 57 -a 0 -x {0.0 1.0 29 ------- null}
- -t 0.580048 -s 0 -d 1 -p tcp -e 1540 -c 0 -i 57 -a 0 -x {0.0 1.0 29 ------- null}
h -t 0.580048 -s 0 -d 1 -p tcp -e 1540 -c 0 -i 57 -a 0 -x {0.0 1.0 -1 ------- null}
r -t 0.58128 -s 1 -d 0 -p ack -e 40 -c 0 -i 54 -a 0 -x {1.0 0.0 26 ------- null}
+ -t 0.58128 -s 0 -d 1 -p tcp -e 1540 -c 0 -i 58 -a 0 -x {0.0 1.0 30 ------- null}
- -t 0.58128 -s 0 -d 1 -p tcp -e 1540 -c 0 -i 58 -a 0 -x {0.0 1.0 30 ------- null}
h -t 0.58128 -s 0 -d 1 -p tcp -e 1540 -c 0 -i 58 -a 0 -x {0.0 1.0 -1 ------- null}
r -t 0.582512 -s 1 -d 0 -p ack -e 40 -c 0 -i 55 -a 0 -x {1.0 0.0 27 ------- null}
+ -t 0.582512 -s 0 -d 1 -p tcp -e 1540 -c 0 -i 59 -a 0 -x {0.0 1.0 31 ------- null}
- -t 0.582512 -s 0 -d 1 -p tcp -e 1540 -c 0 -i 59 -a 0 -x {0.0 1.0 31 ------- null}
h -t 0.582512 -s 0 -d 1 -p tcp -e 1540 -c 0 -i 59 -a 0 -x {0.0 1.0 -1 ------- null}
r -t 0.585048 -s 0 -d 1 -p tcp -e 1540 -c 0 -i 56 -a 0 -x {0.0 1.0 28 ------- null}
+ -t 0.585048 -s 1 -d 0 -p ack -e 40 -c 0 -i 60 -a 0 -x {1.0 0.0 28 ------- null}
- -t 0.585048 -s 1 -d 0 -p ack -e 40 -c 0 -i 60 -a 0 -x {1.0 0.0 28 ------- null}
h -t 0.585048 -s 1 -d 0 -p ack -e 40 -c 0 -i 60 -a 0 -x {1.0 0.0 -1 ------- null}
r -t 0.58628 -s 0 -d 1 -p tcp -e 1540 -c 0 -i 57 -a 0 -x {0.0 1.0 29 ------- null}
+ -t 0.58628 -s 1 -d 0 -p ack -e 40 -c 0 -i 61 -a 0 -x {1.0 0.0 29 ------- null}
- -t 0.58628 -s 1 -d 0 -p ack -e 40 -c 0 -i 61 -a 0 -x {1.0 0.0 29 ------- null}
h -t 0.58628 -s 1 -d 0 -p ack -e 40 -c 0 -i 61 -a 0 -x {1.0 0.0 -1 ------- null}
r -t 0.587512 -s 0 -d 1 -p tcp -e 1540 -c 0 -i 58 -a 0 -x {0.0 1.0 30 ------- null}
+ -t 0.587512 -s 1 -d 0 -p ack -e 40 -c 0 -i 62 -a 0 -x {1.0 0.0 30 ------- null}
- -t 0.587512 -s 1 -d 0 -p ack -e 40 -c 0 -i 62 -a 0 -x {1.0 0.0 30 ------- null}
h -t 0.587512 -s 1 -d 0 -p ack -e 40 -c 0 -i 62 -a 0 -x {1.0 0.0 -1 ------- null}
r -t 0.588744 -s 0 -d 1 -p tcp -e 1540 -c 0 -i 59 -a 0 -x {0.0 1.0 31 ------- null}
+ -t 0.588744 -s 1 -d 0 -p ack -e 40 -c 0 -i 63 -a 0 -x {1.0 0.0 31 ------- null}
- -t 0.588744 -s 1 -d 0 -p ack -e 40 -c 0 -i 63 -a 0 -x {1.0 0.0 31 ------- null}
h -t 0.588744 -s 1 -d 0 -p ack -e 40 -c 0 -i 63 -a 0 -x {1.0 0.0 -1 ------- null}
r -t 0.59008 -s 1 -d 0 -p ack -e 40 -c 0 -i 60 -a 0 -x {1.0 0.0 28 ------- null}
+ -t 0.59008 -s 0 -d 1 -p tcp -e 1540 -c 0 -i 64 -a 0 -x {0.0 1.0 32 ------- null}
- -t 0.59008 -s 0 -d 1 -p tcp -e 1540 -c 0 -i 64 -a 0 -x {0.0 1.0 32 ------- null}
h -t 0.59008 -s 0 -d 1 -p tcp -e 1540 -c 0 -i 64 -a 0 -x {0.0 1.0 -1 ------- null}
r -t 0.591312 -s 1 -d 0 -p ack -e 40 -c 0 -i 61 -a 0 -x {1.0 0.0 29 ------- null}
+ -t 0.591312 -s 0 -d 1 -p tcp -e 1540 -c 0 -i 65 -a 0 -x {0.0 1.0 33 ------- null}
- -t 0.591312 -s 0 -d 1 -p tcp -e 1540 -c 0 -i 65 -a 0 -x {0.0 1.0 33 ------- null}
h -t 0.591312 -s 0 -d 1 -p tcp -e 1540 -c 0 -i 65 -a 0 -x {0.0 1.0 -1 ------- null}
r -t 0.592544 -s 1 -d 0 -p ack -e 40 -c 0 -i 62 -a 0 -x {1.0 0.0 30 ------- null}
+ -t 0.592544 -s 0 -d 1 -p tcp -e 1540 -c 0 -i 66 -a 0 -x {0.0 1.0 34 ------- null}
- -t 0.592544 -s 0 -d 1 -p tcp -e 1540 -c 0 -i 66 -a 0 -x {0.0 1.0 34 ------- null}
h -t 0.592544 -s 0 -d 1 -p tcp -e 1540 -c 0 -i 66 -a 0 -x {0.0 1.0 -1 ------- null}
r -t 0.593776 -s 1 -d 0 -p ack -e 40 -c 0 -i 63 -a 0 -x {1.0 0.0 31 ------- null}
+ -t 0.593776 -s 0 -d 1 -p tcp -e 1540 -c 0 -i 67 -a 0 -x {0.0 1.0 35 ------- null}
- -t 0.593776 -s 0 -d 1 -p tcp -e 1540 -c 0 -i 67 -a 0 -x {0.0 1.0 35 ------- null}
h -t 0.593776 -s 0 -d 1 -p tcp -e 1540 -c 0 -i 67 -a 0 -x {0.0 1.0 -1 ------- null}
r -t 0.596312 -s 0 -d 1 -p tcp -e 1540 -c 0 -i 64 -a 0 -x {0.0 1.0 32 ------- null}
+ -t 0.596312 -s 1 -d 0 -p ack -e 40 -c 0 -i 68 -a 0 -x {1.0 0.0 32 ------- null}
- -t 0.596312 -s 1 -d 0 -p ack -e 40 -c 0 -i 68 -a 0 -x {1.0 0.0 32 ------- null}
h -t 0.596312 -s 1 -d 0 -p ack -e 40 -c 0 -i 68 -a 0 -x {1.0 0.0 -1 ------- null}
r -t 0.597544 -s 0 -d 1 -p tcp -e 1540 -c 0 -i 65 -a 0 -x {0.0 1.0 33 ------- null}
+ -t 0.597544 -s 1 -d 0 -p ack -e 40 -c 0 -i 69 -a 0 -x {1.0 0.0 33 ------- null}
- -t 0.597544 -s 1 -d 0 -p ack -e 40 -c 0 -i 69 -a 0 -x {1.0 0.0 33 ------- null}
h -t 0.597544 -s 1 -d 0 -p ack -e 40 -c 0 -i 69 -a 0 -x {1.0 0.0 -1 ------- null}
r -t 0.598776 -s 0 -d 1 -p tcp -e 1540 -c 0 -i 66 -a 0 -x {0.0 1.0 34 ------- null}
+ -t 0.598776 -s 1 -d 0 -p ack -e 40 -c 0 -i 70 -a 0 -x {1.0 0.0 34 ------- null}
- -t 0.598776 -s 1 -d 0 -p ack -e 40 -c 0 -i 70 -a 0 -x {1.0 0.0 34 ------- null}
h -t 0.598776 -s 1 -d 0 -p ack -e 40 -c 0 -i 70 -a 0 -x {1.0 0.0 -1 ------- null}
r -t 0.600008 -s 0 -d 1 -p tcp -e 1540 -c 0 -i 67 -a 0 -x {0.0 1.0 35 ------- null}
+ -t 0.600008 -s 1 -d 0 -p ack -e 40 -c 0 -i 71 -a 0 -x {1.0 0.0 35 ------- null}
- -t 0.600008 -s 1 -d 0 -p ack -e 40 -c 0 -i 71 -a 0 -x {1.0 0.0 35 ------- null}
h -t 0.600008 -s 1 -d 0 -p ack -e 40 -c 0 -i 71 -a 0 -x {1.0 0.0 -1 ------- null}
r -t 0.601344 -s 1 -d 0 -p ack -e 40 -c 0 -i 68 -a 0 -x {1.0 0.0 32 ------- null}
+ -t 0.601344 -s 0 -d 1 -p tcp -e 1540 -c 0 -i 72 -a 0 -x {0.0 1.0 36 ------- null}
- -t 0.601344 -s 0 -d 1 -p tcp -e 1540 -c 0 -i 72 -a 0 -x {0.0 1.0 36 ------- null}
h -t 0.601344 -s 0 -d 1 -p tcp -e 1540 -c 0 -i 72 -a 0 -x {0.0 1.0 -1 ------- null}
r -t 0.602576 -s 1 -d 0 -p ack -e 40 -c 0 -i 69 -a 0 -x {1.0 0.0 33 ------- null}
+ -t 0.602576 -s 0 -d 1 -p tcp -e 1540 -c 0 -i 73 -a 0 -x {0.0 1.0 37 ------- null}
- -t 0.602576 -s 0 -d 1 -p tcp -e 1540 -c 0 -i 73 -a 0 -x {0.0 1.0 37 ------- null}
h -t 0.602576 -s 0 -d 1 -p tcp -e 1540 -c 0 -i 73 -a 0 -x {0.0 1.0 -1 ------- null}
r -t 0.603808 -s 1 -d 0 -p ack -e 40 -c 0 -i 70 -a 0 -x {1.0 0.0 34 ------- null}
+ -t 0.603808 -s 0 -d 1 -p tcp -e 1540 -c 0 -i 74 -a 0 -x {0.0 1.0 38 ------- null}
- -t 0.603808 -s 0 -d 1 -p tcp -e 1540 -c 0 -i 74 -a 0 -x {0.0 1.0 38 ------- null}
h -t 0.603808 -s 0 -d 1 -p tcp -e 1540 -c 0 -i 74 -a 0 -x {0.0 1.0 -1 ------- null}
r -t 0.60504 -s 1 -d 0 -p ack -e 40 -c 0 -i 71 -a 0 -x {1.0 0.0 35 ------- null}
+ -t 0.60504 -s 0 -d 1 -p tcp -e 1540 -c 0 -i 75 -a 0 -x {0.0 1.0 39 ------- null}
- -t 0.60504 -s 0 -d 1 -p tcp -e 1540 -c 0 -i 75 -a 0 -x {0.0 1.0 39 ------- null}
h -t 0.60504 -s 0 -d 1 -p tcp -e 1540 -c 0 -i 75 -a 0 -x {0.0 1.0 -1 ------- null}
r -t 0.607576 -s 0 -d 1 -p tcp -e 1540 -c 0 -i 72 -a 0 -x {0.0 1.0 36 ------- null}
+ -t 0.607576 -s 1 -d 0 -p ack -e 40 -c 0 -i 76 -a 0 -x {1.0 0.0 36 ------- null}
- -t 0.607576 -s 1 -d 0 -p ack -e 40 -c 0 -i 76 -a 0 -x {1.0 0.0 36 ------- null}
h -t 0.607576 -s 1 -d 0 -p ack -e 40 -c 0 -i 76 -a 0 -x {1.0 0.0 -1 ------- null}
r -t 0.608808 -s 0 -d 1 -p tcp -e 1540 -c 0 -i 73 -a 0 -x {0.0 1.0 37 ------- null}
+ -t 0.608808 -s 1 -d 0 -p ack -e 40 -c 0 -i 77 -a 0 -x {1.0 0.0 37 ------- null}
- -t 0.608808 -s 1 -d 0 -p ack -e 40 -c 0 -i 77 -a 0 -x {1.0 0.0 37 ------- null}
h -t 0.608808 -s 1 -d 0 -p ack -e 40 -c 0 -i 77 -a 0 -x {1.0 0.0 -1 ------- null}
r -t 0.61004 -s 0 -d 1 -p tcp -e 1540 -c 0 -i 74 -a 0 -x {0.0 1.0 38 ------- null}
+ -t 0.61004 -s 1 -d 0 -p ack -e 40 -c 0 -i 78 -a 0 -x {1.0 0.0 38 ------- null}
- -t 0.61004 -s 1 -d 0 -p ack -e 40 -c 0 -i 78 -a 0 -x {1.0 0.0 38 ------- null}
h -t 0.61004 -s 1 -d 0 -p ack -e 40 -c 0 -i 78 -a 0 -x {1.0 0.0 -1 ------- null}
r -t 0.611272 -s 0 -d 1 -p tcp -e 1540 -c 0 -i 75 -a 0 -x {0.0 1.0 39 ------- null}
+ -t 0.611272 -s 1 -d 0 -p ack -e 40 -c 0 -i 79 -a 0 -x {1.0 0.0 39 ------- null}
- -t 0.611272 -s 1 -d 0 -p ack -e 40 -c 0 -i 79 -a 0 -x {1.0 0.0 39 ------- null}
h -t 0.611272 -s 1 -d 0 -p ack -e 40 -c 0 -i 79 -a 0 -x {1.0 0.0 -1 ------- null}
r -t 0.612608 -s 1 -d 0 -p ack -e 40 -c 0 -i 76 -a 0 -x {1.0 0.0 36 ------- null}
+ -t 0.612608 -s 0 -d 1 -p tcp -e 1540 -c 0 -i 80 -a 0 -x {0.0 1.0 40 ------- null}
- -t 0.612608 -s 0 -d 1 -p tcp -e 1540 -c 0 -i 80 -a 0 -x {0.0 1.0 40 ------- null}
h -t 0.612608 -s 0 -d 1 -p tcp -e 1540 -c 0 -i 80 -a 0 -x {0.0 1.0 -1 ------- null}
r -t 0.61384 -s 1 -d 0 -p ack -e 40 -c 0 -i 77 -a 0 -x {1.0 0.0 37 ------- null}
+ -t 0.61384 -s 0 -d 1 -p tcp -e 1540 -c 0 -i 81 -a 0 -x {0.0 1.0 41 ------- null}
- -t 0.61384 -s 0 -d 1 -p tcp -e 1540 -c 0 -i 81 -a 0 -x {0.0 1.0 41 ------- null}
h -t 0.61384 -s 0 -d 1 -p tcp -e 1540 -c 0 -i 81 -a 0 -x {0.0 1.0 -1 ------- null}
r -t 0.615072000000001 -s 1 -d 0 -p ack -e 40 -c 0 -i 78 -a 0 -x {1.0 0.0 38 ------- null}
+ -t 0.615072000000001 -s 0 -d 1 -p tcp -e 1540 -c 0 -i 82 -a 0 -x {0.0 1.0 42 ------- null}
- -t 0.615072000000001 -s 0 -d 1 -p tcp -e 1540 -c 0 -i 82 -a 0 -x {0.0 1.0 42 ------- null}
h -t 0.615072000000001 -s 0 -d 1 -p tcp -e 1540 -c 0 -i 82 -a 0 -x {0.0 1.0 -1 ------- null}
r -t 0.616304000000001 -s 1 -d 0 -p ack -e 40 -c 0 -i 79 -a 0 -x {1.0 0.0 39 ------- null}
+ -t 0.616304000000001 -s 0 -d 1 -p tcp -e 1540 -c 0 -i 83 -a 0 -x {0.0 1.0 43 ------- null}
- -t 0.616304000000001 -s 0 -d 1 -p tcp -e 1540 -c 0 -i 83 -a 0 -x {0.0 1.0 43 ------- null}
h -t 0.616304000000001 -s 0 -d 1 -p tcp -e 1540 -c 0 -i 83 -a 0 -x {0.0 1.0 -1 ------- null}
r -t 0.618840000000001 -s 0 -d 1 -p tcp -e 1540 -c 0 -i 80 -a 0 -x {0.0 1.0 40 ------- null}
+ -t 0.618840000000001 -s 1 -d 0 -p ack -e 40 -c 0 -i 84 -a 0 -x {1.0 0.0 40 ------- null}
- -t 0.618840000000001 -s 1 -d 0 -p ack -e 40 -c 0 -i 84 -a 0 -x {1.0 0.0 40 ------- null}
h -t 0.618840000000001 -s 1 -d 0 -p ack -e 40 -c 0 -i 84 -a 0 -x {1.0 0.0 -1 ------- null}
r -t 0.620072000000001 -s 0 -d 1 -p tcp -e 1540 -c 0 -i 81 -a 0 -x {0.0 1.0 41 ------- null}
+ -t 0.620072000000001 -s 1 -d 0 -p ack -e 40 -c 0 -i 85 -a 0 -x {1.0 0.0 41 ------- null}
- -t 0.620072000000001 -s 1 -d 0 -p ack -e 40 -c 0 -i 85 -a 0 -x {1.0 0.0 41 ------- null}
h -t 0.620072000000001 -s 1 -d 0 -p ack -e 40 -c 0 -i 85 -a 0 -x {1.0 0.0 -1 ------- null}
r -t 0.621304000000001 -s 0 -d 1 -p tcp -e 1540 -c 0 -i 82 -a 0 -x {0.0 1.0 42 ------- null}
+ -t 0.621304000000001 -s 1 -d 0 -p ack -e 40 -c 0 -i 86 -a 0 -x {1.0 0.0 42 ------- null}
- -t 0.621304000000001 -s 1 -d 0 -p ack -e 40 -c 0 -i 86 -a 0 -x {1.0 0.0 42 ------- null}
h -t 0.621304000000001 -s 1 -d 0 -p ack -e 40 -c 0 -i 86 -a 0 -x {1.0 0.0 -1 ------- null}
r -t 0.622536000000001 -s 0 -d 1 -p tcp -e 1540 -c 0 -i 83 -a 0 -x {0.0 1.0 43 ------- null}
+ -t 0.622536000000001 -s 1 -d 0 -p ack -e 40 -c 0 -i 87 -a 0 -x {1.0 0.0 43 ------- null}
- -t 0.622536000000001 -s 1 -d 0 -p ack -e 40 -c 0 -i 87 -a 0 -x {1.0 0.0 43 ------- null}
h -t 0.622536000000001 -s 1 -d 0 -p ack -e 40 -c 0 -i 87 -a 0 -x {1.0 0.0 -1 ------- null}
r -t 0.623872000000001 -s 1 -d 0 -p ack -e 40 -c 0 -i 84 -a 0 -x {1.0 0.0 40 ------- null}
+ -t 0.623872000000001 -s 0 -d 1 -p tcp -e 1540 -c 0 -i 88 -a 0 -x {0.0 1.0 44 ------- null}
- -t 0.623872000000001 -s 0 -d 1 -p tcp -e 1540 -c 0 -i 88 -a 0 -x {0.0 1.0 44 ------- null}
h -t 0.623872000000001 -s 0 -d 1 -p tcp -e 1540 -c 0 -i 88 -a 0 -x {0.0 1.0 -1 ------- null}
r -t 0.625104000000001 -s 1 -d 0 -p ack -e 40 -c 0 -i 85 -a 0 -x {1.0 0.0 41 ------- null}
+ -t 0.625104000000001 -s 0 -d 1 -p tcp -e 1540 -c 0 -i 89 -a 0 -x {0.0 1.0 45 ------- null}
- -t 0.625104000000001 -s 0 -d 1 -p tcp -e 1540 -c 0 -i 89 -a 0 -x {0.0 1.0 45 ------- null}
h -t 0.625104000000001 -s 0 -d 1 -p tcp -e 1540 -c 0 -i 89 -a 0 -x {0.0 1.0 -1 ------- null}