+ 0.5 0 1 tcp 1500 ------- 0 0.0 1.0 0 0
- 0.5 0 1 tcp 1500 ------- 0 0.0 1.0 0 0
+ 0.5 0 1 tcp 1540 ------- 0 0.0 1.0 1 1
+ 0.5 0 1 tcp 1540 ------- 0 0.0 1.0 2 2
+ 0.5 0 1 tcp 1540 ------- 0 0.0 1.0 3 3
+ 0.5 0 1 tcp 1540 ------- 0 0.0 1.0 4 4
+ 0.5 0 1 tcp 1540 ------- 0 0.0 1.0 5 5
+ 0.5 0 1 tcp 1540 ------- 0 0.0 1.0 6 6
+ 0.5 0 1 tcp 1540 ------- 0 0.0 1.0 7 7
+ 0.5 0 1 tcp 1540 ------- 0 0.0 1.0 8 8
+ 0.5 0 1 tcp 1540 ------- 0 0.0 1.0 9 9
+ 0.5 0 1 tcp 1540 ------- 0 0.0 1.0 10 10
+ 0.5 0 1 tcp 1540 ------- 0 0.0 1.0 11 11
+ 0.5 0 1 tcp 1540 ------- 0 0.0 1.0 12 12
+ 0.5 0 1 tcp 1540 ------- 0 0.0 1.0 13 13
+ 0.5 0 1 tcp 1540 ------- 0 0.0 1.0 14 14
+ 0.5 0 1 tcp 1540 ------- 0 0.0 1.0 15 15
+ 0.5 0 1 tcp 1540 ------- 0 0.0 1.0 16 16
+ 0.5 0 1 tcp 1540 ------- 0 0.0 1.0 17 17
+ 0.5 0 1 tcp 1540 ------- 0 0.0 1.0 18 18
+ 0.5 0 1 tcp 1540 ------- 0 0.0 1.0 19 19
+ 0.5 0 1 tcp 1540 ------- 0 0.0 1.0 20 20
+ 0.5 0 1 tcp 1540 ------- 0 0.0 1.0 21 21
+ 0.5 0 1 tcp 1540 ------- 0 0.0 1.0 22 22
+ 0.5 0 1 tcp 1540 ------- 0 0.0 1.0 23 23
+ 0.5 0 1 tcp 1540 ------- 0 0.0 1.0 24 24
+ 0.5 0 1 tcp 1540 ------- 0 0.0 1.0 25 25
+ 0.5 0 1 tcp 1540 ------- 0 0.0 1.0 26 26
+ 0.5 0 1 tcp 1540 ------- 0 0.0 1.0 27 27
+ 0.5 0 1 tcp 1540 ------- 0 0.0 1.0 28 28
+ 0.5 0 1 tcp 1540 ------- 0 0.0 1.0 29 29
+ 0.5 0 1 tcp 1540 ------- 0 0.0 1.0 30 30
+ 0.5 0 1 tcp 1540 ------- 0 0.0 1.0 31 31
+ 0.5 0 1 tcp 1540 ------- 0 0.0 1.0 32 32
+ 0.5 0 1 tcp 1540 ------- 0 0.0 1.0 33 33
+ 0.5 0 1 tcp 1540 ------- 0 0.0 1.0 34 34
+ 0.5 0 1 tcp 1540 ------- 0 0.0 1.0 35 35
+ 0.5 0 1 tcp 1540 ------- 0 0.0 1.0 36 36
+ 0.5 0 1 tcp 1540 ------- 0 0.0 1.0 37 37
+ 0.5 0 1 tcp 1540 ------- 0 0.0 1.0 38 38
+ 0.5 0 1 tcp 1540 ------- 0 0.0 1.0 39 39
+ 0.5 0 1 tcp 1540 ------- 0 0.0 1.0 40 40
+ 0.5 0 1 tcp 1540 ------- 0 0.0 1.0 41 41
+ 0.5 0 1 tcp 1540 ------- 0 0.0 1.0 42 42
+ 0.5 0 1 tcp 1540 ------- 0 0.0 1.0 43 43
+ 0.5 0 1 tcp 1540 ------- 0 0.0 1.0 44 44
+ 0.5 0 1 tcp 1540 ------- 0 0.0 1.0 45 45
+ 0.5 0 1 tcp 1540 ------- 0 0.0 1.0 46 46
+ 0.5 0 1 tcp 1540 ------- 0 0.0 1.0 47 47
+ 0.5 0 1 tcp 1540 ------- 0 0.0 1.0 48 48
+ 0.5 0 1 tcp 1540 ------- 0 0.0 1.0 49 49
+ 0.5 0 1 tcp 1540 ------- 0 0.0 1.0 50 50
d 0.5 0 1 tcp 1540 ------- 0 0.0 1.0 50 50
+ 0.5 0 1 tcp 1540 ------- 0 0.0 1.0 51 51
d 0.5 0 1 tcp 1540 ------- 0 0.0 1.0 51 51
+ 0.5 0 1 tcp 1540 ------- 0 0.0 1.0 52 52
d 0.5 0 1 tcp 1540 ------- 0 0.0 1.0 52 52
+ 0.5 0 1 tcp 1540 ------- 0 0.0 1.0 53 53
d 0.5 0 1 tcp 1540 ------- 0 0.0 1.0 53 53
+ 0.5 0 1 tcp 1540 ------- 0 0.0 1.0 54 54
d 0.5 0 1 tcp 1540 ------- 0 0.0 1.0 54 54
+ 0.5 0 1 tcp 1540 ------- 0 0.0 1.0 55 55
d 0.5 0 1 tcp 1540 ------- 0 0.0 1.0 55 55
+ 0.5 0 1 tcp 1540 ------- 0 0.0 1.0 56 56
d 0.5 0 1 tcp 1540 ------- 0 0.0 1.0 56 56
+ 0.5 0 1 tcp 1540 ------- 0 0.0 1.0 57 57
d 0.5 0 1 tcp 1540 ------- 0 0.0 1.0 57 57
+ 0.5 0 1 tcp 1540 ------- 0 0.0 1.0 58 58
d 0.5 0 1 tcp 1540 ------- 0 0.0 1.0 58 58
+ 0.5 0 1 tcp 1540 ------- 0 0.0 1.0 59 59
d 0.5 0 1 tcp 1540 ------- 0 0.0 1.0 59 59
+ 0.5 0 1 tcp 1540 ------- 0 0.0 1.0 60 60
d 0.5 0 1 tcp 1540 ------- 0 0.0 1.0 60 60
+ 0.5 0 1 tcp 1540 ------- 0 0.0 1.0 61 61
d 0.5 0 1 tcp 1540 ------- 0 0.0 1.0 61 61
+ 0.5 0 1 tcp 1540 ------- 0 0.0 1.0 62 62
d 0.5 0 1 tcp 1540 ------- 0 0.0 1.0 62 62
+ 0.5 0 1 tcp 1540 ------- 0 0.0 1.0 63 63
d 0.5 0 1 tcp 1540 ------- 0 0.0 1.0 63 63
+ 0.5 0 1 tcp 1540 ------- 0 0.0 1.0 64 64
d 0.5 0 1 tcp 1540 ------- 0 0.0 1.0 64 64
+ 0.5 0 1 tcp 1540 ------- 0 0.0 1.0 65 65
d 0.5 0 1 tcp 1540 ------- 0 0.0 1.0 65 65
+ 0.5 0 1 tcp 1540 ------- 0 0.0 1.0 66 66
d 0.5 0 1 tcp 1540 ------- 0 0.0 1.0 66 66
+ 0.5 0 1 tcp 1540 ------- 0 0.0 1.0 67 67
d 0.5 0 1 tcp 1540 ------- 0 0.0 1.0 67 67
+ 0.5 0 1 tcp 1540 ------- 0 0.0 1.0 68 68
d 0.5 0 1 tcp 1540 ------- 0 0.0 1.0 68 68
+ 0.5 0 1 tcp 1540 ------- 0 0.0 1.0 69 69
d 0.5 0 1 tcp 1540 ------- 0 0.0 1.0 69 69
+ 0.5 0 1 tcp 1540 ------- 0 0.0 1.0 70 70
d 0.5 0 1 tcp 1540 ------- 0 0.0 1.0 70 70
+ 0.5 0 1 tcp 1540 ------- 0 0.0 1.0 71 71
d 0.5 0 1 tcp 1540 ------- 0 0.0 1.0 71 71
+ 0.5 0 1 tcp 1540 ------- 0 0.0 1.0 72 72
d 0.5 0 1 tcp 1540 ------- 0 0.0 1.0 72 72
+ 0.5 0 1 tcp 1540 ------- 0 0.0 1.0 73 73
d 0.5 0 1 tcp 1540 ------- 0 0.0 1.0 73 73
+ 0.5 0 1 tcp 1540 ------- 0 0.0 1.0 74 74
d 0.5 0 1 tcp 1540 ------- 0 0.0 1.0 74 74
+ 0.5 0 1 tcp 1540 ------- 0 0.0 1.0 75 75
d 0.5 0 1 tcp 1540 ------- 0 0.0 1.0 75 75
+ 0.5 0 1 tcp 1540 ------- 0 0.0 1.0 76 76
d 0.5 0 1 tcp 1540 ------- 0 0.0 1.0 76 76
+ 0.5 0 1 tcp 1540 ------- 0 0.0 1.0 77 77
d 0.5 0 1 tcp 1540 ------- 0 0.0 1.0 77 77
+ 0.5 0 1 tcp 1540 ------- 0 0.0 1.0 78 78
d 0.5 0 1 tcp 1540 ------- 0 0.0 1.0 78 78
+ 0.5 0 1 tcp 1540 ------- 0 0.0 1.0 79 79
d 0.5 0 1 tcp 1540 ------- 0 0.0 1.0 79 79
+ 0.5 0 1 tcp 1540 ------- 0 0.0 1.0 80 80
d 0.5 0 1 tcp 1540 ------- 0 0.0 1.0 80 80
+ 0.5 0 1 tcp 1540 ------- 0 0.0 1.0 81 81
d 0.5 0 1 tcp 1540 ------- 0 0.0 1.0 81 81
- 0.5012 0 1 tcp 1540 ------- 0 0.0 1.0 1 1
- 0.502432 0 1 tcp 1540 ------- 0 0.0 1.0 2 2
- 0.503664 0 1 tcp 1540 ------- 0 0.0 1.0 3 3
- 0.504896 0 1 tcp 1540 ------- 0 0.0 1.0 4 4
- 0.506128 0 1 tcp 1540 ------- 0 0.0 1.0 5 5
r 0.5062 0 1 tcp 1500 ------- 0 0.0 1.0 0 0
+ 0.5062 1 0 ack 40 ------- 0 1.0 0.0 0 82
- 0.5062 1 0 ack 40 ------- 0 1.0 0.0 0 82
- 0.50736 0 1 tcp 1540 ------- 0 0.0 1.0 6 6
r 0.507432 0 1 tcp 1540 ------- 0 0.0 1.0 1 1
+ 0.507432 1 0 ack 40 ------- 0 1.0 0.0 1 83
- 0.507432 1 0 ack 40 ------- 0 1.0 0.0 1 83
- 0.508592 0 1 tcp 1540 ------- 0 0.0 1.0 7 7
r 0.508664 0 1 tcp 1540 ------- 0 0.0 1.0 2 2
+ 0.508664 1 0 ack 40 ------- 0 1.0 0.0 2 84
- 0.508664 1 0 ack 40 ------- 0 1.0 0.0 2 84
- 0.509824 0 1 tcp 1540 ------- 0 0.0 1.0 8 8
r 0.509896 0 1 tcp 1540 ------- 0 0.0 1.0 3 3
+ 0.509896 1 0 ack 40 ------- 0 1.0 0.0 3 85
- 0.509896 1 0 ack 40 ------- 0 1.0 0.0 3 85
- 0.511056 0 1 tcp 1540 ------- 0 0.0 1.0 9 9
r 0.511128 0 1 tcp 1540 ------- 0 0.0 1.0 4 4
+ 0.511128 1 0 ack 40 ------- 0 1.0 0.0 4 86
- 0.511128 1 0 ack 40 ------- 0 1.0 0.0 4 86
r 0.511232 1 0 ack 40 ------- 0 1.0 0.0 0 82
+ 0.511232 0 1 tcp 1540 ------- 0 0.0 1.0 82 87
- 0.512288 0 1 tcp 1540 ------- 0 0.0 1.0 10 10
r 0.51236 0 1 tcp 1540 ------- 0 0.0 1.0 5 5
+ 0.51236 1 0 ack 40 ------- 0 1.0 0.0 5 88
- 0.51236 1 0 ack 40 ------- 0 1.0 0.0 5 88
r 0.512464 1 0 ack 40 ------- 0 1.0 0.0 1 83
+ 0.512464 0 1 tcp 1540 ------- 0 0.0 1.0 83 89
- 0.51352 0 1 tcp 1540 ------- 0 0.0 1.0 11 11
r 0.513592 0 1 tcp 1540 ------- 0 0.0 1.0 6 6
+ 0.513592 1 0 ack 40 ------- 0 1.0 0.0 6 90
- 0.513592 1 0 ack 40 ------- 0 1.0 0.0 6 90
r 0.513696 1 0 ack 40 ------- 0 1.0 0.0 2 84
+ 0.513696 0 1 tcp 1540 ------- 0 0.0 1.0 84 91
- 0.514752 0 1 tcp 1540 ------- 0 0.0 1.0 12 12
r 0.514824 0 1 tcp 1540 ------- 0 0.0 1.0 7 7
+ 0.514824 1 0 ack 40 ------- 0 1.0 0.0 7 92
- 0.514824 1 0 ack 40 ------- 0 1.0 0.0 7 92
r 0.514928 1 0 ack 40 ------- 0 1.0 0.0 3 85
+ 0.514928 0 1 tcp 1540 ------- 0 0.0 1.0 85 93
- 0.515984 0 1 tcp 1540 ------- 0 0.0 1.0 13 13
r 0.516056 0 1 tcp 1540 ------- 0 0.0 1.0 8 8
+ 0.516056 1 0 ack 40 ------- 0 1.0 0.0 8 94
- 0.516056 1 0 ack 40 ------- 0 1.0 0.0 8 94
r 0.51616 1 0 ack 40 ------- 0 1.0 0.0 4 86
+ 0.51616 0 1 tcp 1540 ------- 0 0.0 1.0 86 95
- 0.517216 0 1 tcp 1540 ------- 0 0.0 1.0 14 14
r 0.517288 0 1 tcp 1540 ------- 0 0.0 1.0 9 9
+ 0.517288 1 0 ack 40 ------- 0 1.0 0.0 9 96
- 0.517288 1 0 ack 40 ------- 0 1.0 0.0 9 96
r 0.517392 1 0 ack 40 ------- 0 1.0 0.0 5 88
+ 0.517392 0 1 tcp 1540 ------- 0 0.0 1.0 87 97
- 0.518448 0 1 tcp 1540 ------- 0 0.0 1.0 15 15
r 0.51852 0 1 tcp 1540 ------- 0 0.0 1.0 10 10
+ 0.51852 1 0 ack 40 ------- 0 1.0 0.0 10 98
- 0.51852 1 0 ack 40 ------- 0 1.0 0.0 10 98
r 0.518624 1 0 ack 40 ------- 0 1.0 0.0 6 90
+ 0.518624 0 1 tcp 1540 ------- 0 0.0 1.0 88 99
- 0.51968 0 1 tcp 1540 ------- 0 0.0 1.0 16 16
r 0.519752 0 1 tcp 1540 ------- 0 0.0 1.0 11 11
+ 0.519752 1 0 ack 40 ------- 0 1.0 0.0 11 100
- 0.519752 1 0 ack 40 ------- 0 1.0 0.0 11 100
r 0.519856 1 0 ack 40 ------- 0 1.0 0.0 7 92
+ 0.519856 0 1 tcp 1540 ------- 0 0.0 1.0 89 101
- 0.520912 0 1 tcp 1540 ------- 0 0.0 1.0 17 17
r 0.520984 0 1 tcp 1540 ------- 0 0.0 1.0 12 12
+ 0.520984 1 0 ack 40 ------- 0 1.0 0.0 12 102
- 0.520984 1 0 ack 40 ------- 0 1.0 0.0 12 102
r 0.521088 1 0 ack 40 ------- 0 1.0 0.0 8 94
+ 0.521088 0 1 tcp 1540 ------- 0 0.0 1.0 90 103
- 0.522144 0 1 tcp 1540 ------- 0 0.0 1.0 18 18
r 0.522216 0 1 tcp 1540 ------- 0 0.0 1.0 13 13
+ 0.522216 1 0 ack 40 ------- 0 1.0 0.0 13 104
- 0.522216 1 0 ack 40 ------- 0 1.0 0.0 13 104
r 0.52232 1 0 ack 40 ------- 0 1.0 0.0 9 96
+ 0.52232 0 1 tcp 1540 ------- 0 0.0 1.0 91 105
- 0.523376 0 1 tcp 1540 ------- 0 0.0 1.0 19 19
r 0.523448 0 1 tcp 1540 ------- 0 0.0 1.0 14 14
+ 0.523448 1 0 ack 40 ------- 0 1.0 0.0 14 106
- 0.523448 1 0 ack 40 ------- 0 1.0 0.0 14 106
r 0.523552 1 0 ack 40 ------- 0 1.0 0.0 10 98
+ 0.523552 0 1 tcp 1540 ------- 0 0.0 1.0 92 107
- 0.524608 0 1 tcp 1540 ------- 0 0.0 1.0 20 20
r 0.52468 0 1 tcp 1540 ------- 0 0.0 1.0 15 15
+ 0.52468 1 0 ack 40 ------- 0 1.0 0.0 15 108
- 0.52468 1 0 ack 40 ------- 0 1.0 0.0 15 108
r 0.524784 1 0 ack 40 ------- 0 1.0 0.0 11 100
+ 0.524784 0 1 tcp 1540 ------- 0 0.0 1.0 93 109
- 0.52584 0 1 tcp 1540 ------- 0 0.0 1.0 21 21
r 0.525912 0 1 tcp 1540 ------- 0 0.0 1.0 16 16
+ 0.525912 1 0 ack 40 ------- 0 1.0 0.0 16 110
- 0.525912 1 0 ack 40 ------- 0 1.0 0.0 16 110
r 0.526016 1 0 ack 40 ------- 0 1.0 0.0 12 102
+ 0.526016 0 1 tcp 1540 ------- 0 0.0 1.0 94 111
- 0.527072 0 1 tcp 1540 ------- 0 0.0 1.0 22 22
r 0.527144 0 1 tcp 1540 ------- 0 0.0 1.0 17 17
+ 0.527144 1 0 ack 40 ------- 0 1.0 0.0 17 112
- 0.527144 1 0 ack 40 ------- 0 1.0 0.0 17 112
r 0.527248 1 0 ack 40 ------- 0 1.0 0.0 13 104
+ 0.527248 0 1 tcp 1540 ------- 0 0.0 1.0 95 113
- 0.528304 0 1 tcp 1540 ------- 0 0.0 1.0 23 23
r 0.528376 0 1 tcp 1540 ------- 0 0.0 1.0 18 18
+ 0.528376 1 0 ack 40 ------- 0 1.0 0.0 18 114
- 0.528376 1 0 ack 40 ------- 0 1.0 0.0 18 114
r 0.52848 1 0 ack 40 ------- 0 1.0 0.0 14 106
+ 0.52848 0 1 tcp 1540 ------- 0 0.0 1.0 96 115
- 0.529536 0 1 tcp 1540 ------- 0 0.0 1.0 24 24
r 0.529608 0 1 tcp 1540 ------- 0 0.0 1.0 19 19
+ 0.529608 1 0 ack 40 ------- 0 1.0 0.0 19 116
- 0.529608 1 0 ack 40 ------- 0 1.0 0.0 19 116
r 0.529712 1 0 ack 40 ------- 0 1.0 0.0 15 108
+ 0.529712 0 1 tcp 1540 ------- 0 0.0 1.0 97 117
- 0.530768 0 1 tcp 1540 ------- 0 0.0 1.0 25 25
r 0.53084 0 1 tcp 1540 ------- 0 0.0 1.0 20 20
+ 0.53084 1 0 ack 40 ------- 0 1.0 0.0 20 118
- 0.53084 1 0 ack 40 ------- 0 1.0 0.0 20 118
r 0.530944 1 0 ack 40 ------- 0 1.0 0.0 16 110
+ 0.530944 0 1 tcp 1540 ------- 0 0.0 1.0 98 119
- 0.532 0 1 tcp 1540 ------- 0 0.0 1.0 26 26
r 0.532072 0 1 tcp 1540 ------- 0 0.0 1.0 21 21
+ 0.532072 1 0 ack 40 ------- 0 1.0 0.0 21 120
- 0.532072 1 0 ack 40 ------- 0 1.0 0.0 21 120
r 0.532176 1 0 ack 40 ------- 0 1.0 0.0 17 112
+ 0.532176 0 1 tcp 1540 ------- 0 0.0 1.0 99 121
- 0.533232 0 1 tcp 1540 ------- 0 0.0 1.0 27 27
r 0.533304 0 1 tcp 1540 ------- 0 0.0 1.0 22 22
+ 0.533304 1 0 ack 40 ------- 0 1.0 0.0 22 122
- 0.533304 1 0 ack 40 ------- 0 1.0 0.0 22 122
r 0.533408 1 0 ack 40 ------- 0 1.0 0.0 18 114
+ 0.533408 0 1 tcp 1540 ------- 0 0.0 1.0 100 123
- 0.534464 0 1 tcp 1540 ------- 0 0.0 1.0 28 28
r 0.534536 0 1 tcp 1540 ------- 0 0.0 1.0 23 23
+ 0.534536 1 0 ack 40 ------- 0 1.0 0.0 23 124
- 0.534536 1 0 ack 40 ------- 0 1.0 0.0 23 124
r 0.53464 1 0 ack 40 ------- 0 1.0 0.0 19 116
+ 0.53464 0 1 tcp 1540 ------- 0 0.0 1.0 101 125
- 0.535696 0 1 tcp 1540 ------- 0 0.0 1.0 29 29
r 0.535768 0 1 tcp 1540 ------- 0 0.0 1.0 24 24
+ 0.535768 1 0 ack 40 ------- 0 1.0 0.0 24 126
- 0.535768 1 0 ack 40 ------- 0 1.0 0.0 24 126
r 0.535872 1 0 ack 40 ------- 0 1.0 0.0 20 118
+ 0.535872 0 1 tcp 1540 ------- 0 0.0 1.0 102 127
- 0.536928 0 1 tcp 1540 ------- 0 0.0 1.0 30 30
r 0.537 0 1 tcp 1540 ------- 0 0.0 1.0 25 25
+ 0.537 1 0 ack 40 ------- 0 1.0 0.0 25 128
- 0.537 1 0 ack 40 ------- 0 1.0 0.0 25 128
r 0.537104 1 0 ack 40 ------- 0 1.0 0.0 21 120
+ 0.537104 0 1 tcp 1540 ------- 0 0.0 1.0 103 129
- 0.53816 0 1 tcp 1540 ------- 0 0.0 1.0 31 31
r 0.538232 0 1 tcp 1540 ------- 0 0.0 1.0 26 26
+ 0.538232 1 0 ack 40 ------- 0 1.0 0.0 26 130
- 0.538232 1 0 ack 40 ------- 0 1.0 0.0 26 130
r 0.538336 1 0 ack 40 ------- 0 1.0 0.0 22 122
+ 0.538336 0 1 tcp 1540 ------- 0 0.0 1.0 104 131
- 0.539392 0 1 tcp 1540 ------- 0 0.0 1.0 32 32
r 0.539464 0 1 tcp 1540 ------- 0 0.0 1.0 27 27
+ 0.539464 1 0 ack 40 ------- 0 1.0 0.0 27 132
- 0.539464 1 0 ack 40 ------- 0 1.0 0.0 27 132
r 0.539568 1 0 ack 40 ------- 0 1.0 0.0 23 124
+ 0.539568 0 1 tcp 1540 ------- 0 0.0 1.0 105 133
- 0.540624 0 1 tcp 1540 ------- 0 0.0 1.0 33 33
r 0.540696 0 1 tcp 1540 ------- 0 0.0 1.0 28 28
+ 0.540696 1 0 ack 40 ------- 0 1.0 0.0 28 134
- 0.540696 1 0 ack 40 ------- 0 1.0 0.0 28 134
r 0.5408 1 0 ack 40 ------- 0 1.0 0.0 24 126
+ 0.5408 0 1 tcp 1540 ------- 0 0.0 1.0 106 135
- 0.541856 0 1 tcp 1540 ------- 0 0.0 1.0 34 34
r 0.541928 0 1 tcp 1540 ------- 0 0.0 1.0 29 29
+ 0.541928 1 0 ack 40 ------- 0 1.0 0.0 29 136
- 0.541928 1 0 ack 40 ------- 0 1.0 0.0 29 136
r 0.542032 1 0 ack 40 ------- 0 1.0 0.0 25 128
+ 0.542032 0 1 tcp 1540 ------- 0 0.0 1.0 107 137
- 0.543088 0 1 tcp 1540 ------- 0 0.0 1.0 35 35
r 0.54316 0 1 tcp 1540 ------- 0 0.0 1.0 30 30
+ 0.54316 1 0 ack 40 ------- 0 1.0 0.0 30 138
- 0.54316 1 0 ack 40 ------- 0 1.0 0.0 30 138
r 0.543264 1 0 ack 40 ------- 0 1.0 0.0 26 130
+ 0.543264 0 1 tcp 1540 ------- 0 0.0 1.0 108 139
- 0.54432 0 1 tcp 1540 ------- 0 0.0 1.0 36 36
r 0.544392 0 1 tcp 1540 ------- 0 0.0 1.0 31 31
+ 0.544392 1 0 ack 40 ------- 0 1.0 0.0 31 140
- 0.544392 1 0 ack 40 ------- 0 1.0 0.0 31 140
r 0.544496 1 0 ack 40 ------- 0 1.0 0.0 27 132
+ 0.544496 0 1 tcp 1540 ------- 0 0.0 1.0 109 141
- 0.545552 0 1 tcp 1540 ------- 0 0.0 1.0 37 37
r 0.545624 0 1 tcp 1540 ------- 0 0.0 1.0 32 32
+ 0.545624 1 0 ack 40 ------- 0 1.0 0.0 32 142
- 0.545624 1 0 ack 40 ------- 0 1.0 0.0 32 142
r 0.545728 1 0 ack 40 ------- 0 1.0 0.0 28 134
+ 0.545728 0 1 tcp 1540 ------- 0 0.0 1.0 110 143
- 0.546784 0 1 tcp 1540 ------- 0 0.0 1.0 38 38
r 0.546856 0 1 tcp 1540 ------- 0 0.0 1.0 33 33
+ 0.546856 1 0 ack 40 ------- 0 1.0 0.0 33 144
- 0.546856 1 0 ack 40 ------- 0 1.0 0.0 33 144
r 0.54696 1 0 ack 40 ------- 0 1.0 0.0 29 136
+ 0.54696 0 1 tcp 1540 ------- 0 0.0 1.0 111 145
- 0.548016 0 1 tcp 1540 ------- 0 0.0 1.0 39 39
r 0.548088 0 1 tcp 1540 ------- 0 0.0 1.0 34 34
+ 0.548088 1 0 ack 40 ------- 0 1.0 0.0 34 146
- 0.548088 1 0 ack 40 ------- 0 1.0 0.0 34 146
r 0.548192 1 0 ack 40 ------- 0 1.0 0.0 30 138
+ 0.548192 0 1 tcp 1540 ------- 0 0.0 1.0 112 147
- 0.549248 0 1 tcp 1540 ------- 0 0.0 1.0 40 40
r 0.54932 0 1 tcp 1540 ------- 0 0.0 1.0 35 35
+ 0.54932 1 0 ack 40 ------- 0 1.0 0.0 35 148
- 0.54932 1 0 ack 40 ------- 0 1.0 0.0 35 148
r 0.549424 1 0 ack 40 ------- 0 1.0 0.0 31 140
+ 0.549424 0 1 tcp 1540 ------- 0 0.0 1.0 113 149
- 0.55048 0 1 tcp 1540 ------- 0 0.0 1.0 41 41
r 0.550552 0 1 tcp 1540 ------- 0 0.0 1.0 36 36
+ 0.550552 1 0 ack 40 ------- 0 1.0 0.0 36 150
- 0.550552 1 0 ack 40 ------- 0 1.0 0.0 36 150
r 0.550656 1 0 ack 40 ------- 0 1.0 0.0 32 142
+ 0.550656 0 1 tcp 1540 ------- 0 0.0 1.0 114 151
- 0.551712 0 1 tcp 1540 ------- 0 0.0 1.0 42 42
r 0.551784 0 1 tcp 1540 ------- 0 0.0 1.0 37 37
+ 0.551784 1 0 ack 40 ------- 0 1.0 0.0 37 152
- 0.551784 1 0 ack 40 ------- 0 1.0 0.0 37 152
r 0.551888 1 0 ack 40 ------- 0 1.0 0.0 33 144
+ 0.551888 0 1 tcp 1540 ------- 0 0.0 1.0 115 153
- 0.552944 0 1 tcp 1540 ------- 0 0.0 1.0 43 43
r 0.553016 0 1 tcp 1540 ------- 0 0.0 1.0 38 38
+ 0.553016 1 0 ack 40 ------- 0 1.0 0.0 38 154
- 0.553016 1 0 ack 40 ------- 0 1.0 0.0 38 154
r 0.55312 1 0 ack 40 ------- 0 1.0 0.0 34 146
+ 0.55312 0 1 tcp 1540 ------- 0 0.0 1.0 116 155
- 0.554176 0 1 tcp 1540 ------- 0 0.0 1.0 44 44
r 0.554248 0 1 tcp 1540 ------- 0 0.0 1.0 39 39
+ 0.554248 1 0 ack 40 ------- 0 1.0 0.0 39 156
- 0.554248 1 0 ack 40 ------- 0 1.0 0.0 39 156
r 0.554352 1 0 ack 40 ------- 0 1.0 0.0 35 148
+ 0.554352 0 1 tcp 1540 ------- 0 0.0 1.0 117 157
- 0.555408 0 1 tcp 1540 ------- 0 0.0 1.0 45 45
r 0.55548 0 1 tcp 1540 ------- 0 0.0 1.0 40 40
+ 0.55548 1 0 ack 40 ------- 0 1.0 0.0 40 158
- 0.55548 1 0 ack 40 ------- 0 1.0 0.0 40 158
r 0.555584 1 0 ack 40 ------- 0 1.0 0.0 36 150
+ 0.555584 0 1 tcp 1540 ------- 0 0.0 1.0 118 159
- 0.55664 0 1 tcp 1540 ------- 0 0.0 1.0 46 46
r 0.556712 0 1 tcp 1540 ------- 0 0.0 1.0 41 41
+ 0.556712 1 0 ack 40 ------- 0 1.0 0.0 41 160
- 0.556712 1 0 ack 40 ------- 0 1.0 0.0 41 160
r 0.556816 1 0 ack 40 ------- 0 1.0 0.0 37 152
+ 0.556816 0 1 tcp 1540 ------- 0 0.0 1.0 119 161
- 0.557872 0 1 tcp 1540 ------- 0 0.0 1.0 47 47
r 0.557944 0 1 tcp 1540 ------- 0 0.0 1.0 42 42
+ 0.557944 1 0 ack 40 ------- 0 1.0 0.0 42 162
- 0.557944 1 0 ack 40 ------- 0 1.0 0.0 42 162
r 0.558048 1 0 ack 40 ------- 0 1.0 0.0 38 154
+ 0.558048 0 1 tcp 1540 ------- 0 0.0 1.0 120 163
- 0.559104 0 1 tcp 1540 ------- 0 0.0 1.0 48 48
r 0.559176 0 1 tcp 1540 ------- 0 0.0 1.0 43 43
+ 0.559176 1 0 ack 40 ------- 0 1.0 0.0 43 164
- 0.559176 1 0 ack 40 ------- 0 1.0 0.0 43 164
r 0.55928 1 0 ack 40 ------- 0 1.0 0.0 39 156
+ 0.55928 0 1 tcp 1540 ------- 0 0.0 1.0 121 165
- 0.560336 0 1 tcp 1540 ------- 0 0.0 1.0 49 49
r 0.560408 0 1 tcp 1540 ------- 0 0.0 1.0 44 44
+ 0.560408 1 0 ack 40 ------- 0 1.0 0.0 44 166
- 0.560408 1 0 ack 40 ------- 0 1.0 0.0 44 166
r 0.560512 1 0 ack 40 ------- 0 1.0 0.0 40 158
+ 0.560512 0 1 tcp 1540 ------- 0 0.0 1.0 122 167
- 0.561568 0 1 tcp 1540 ------- 0 0.0 1.0 82 87
r 0.56164 0 1 tcp 1540 ------- 0 0.0 1.0 45 45
+ 0.56164 1 0 ack 40 ------- 0 1.0 0.0 45 168
- 0.56164 1 0 ack 40 ------- 0 1.0 0.0 45 168
r 0.561744 1 0 ack 40 ------- 0 1.0 0.0 41 160
+ 0.561744 0 1 tcp 1540 ------- 0 0.0 1.0 123 169
- 0.5628 0 1 tcp 1540 ------- 0 0.0 1.0 83 89
r 0.562872 0 1 tcp 1540 ------- 0 0.0 1.0 46 46
+ 0.562872 1 0 ack 40 ------- 0 1.0 0.0 46 170
- 0.562872 1 0 ack 40 ------- 0 1.0 0.0 46 170
r 0.562976 1 0 ack 40 ------- 0 1.0 0.0 42 162
+ 0.562976 0 1 tcp 1540 ------- 0 0.0 1.0 124 171
- 0.564032 0 1 tcp 1540 ------- 0 0.0 1.0 84 91
r 0.564104 0 1 tcp 1540 ------- 0 0.0 1.0 47 47
+ 0.564104 1 0 ack 40 ------- 0 1.0 0.0 47 172
- 0.564104 1 0 ack 40 ------- 0 1.0 0.0 47 172
r 0.564208 1 0 ack 40 ------- 0 1.0 0.0 43 164
+ 0.564208 0 1 tcp 1540 ------- 0 0.0 1.0 125 173
- 0.565264 0 1 tcp 1540 ------- 0 0.0 1.0 85 93
r 0.565336 0 1 tcp 1540 ------- 0 0.0 1.0 48 48
+ 0.565336 1 0 ack 40 ------- 0 1.0 0.0 48 174
- 0.565336 1 0 ack 40 ------- 0 1.0 0.0 48 174
r 0.56544 1 0 ack 40 ------- 0 1.0 0.0 44 166
+ 0.56544 0 1 tcp 1540 ------- 0 0.0 1.0 126 175
- 0.566496 0 1 tcp 1540 ------- 0 0.0 1.0 86 95
r 0.566568 0 1 tcp 1540 ------- 0 0.0 1.0 49 49
+ 0.566568 1 0 ack 40 ------- 0 1.0 0.0 49 176
- 0.566568 1 0 ack 40 ------- 0 1.0 0.0 49 176
r 0.566672 1 0 ack 40 ------- 0 1.0 0.0 45 168
+ 0.566672 0 1 tcp 1540 ------- 0 0.0 1.0 127 177
- 0.567728 0 1 tcp 1540 ------- 0 0.0 1.0 87 97
r 0.5678 0 1 tcp 1540 ------- 0 0.0 1.0 82 87
+ 0.5678 1 0 ack 40 ------- 0 1.0 0.0 49 178
- 0.5678 1 0 ack 40 ------- 0 1.0 0.0 49 178
r 0.567904 1 0 ack 40 ------- 0 1.0 0.0 46 170
+ 0.567904 0 1 tcp 1540 ------- 0 0.0 1.0 128 179
- 0.56896 0 1 tcp 1540 ------- 0 0.0 1.0 88 99
r 0.569032 0 1 tcp 1540 ------- 0 0.0 1.0 83 89
+ 0.569032 1 0 ack 40 ------- 0 1.0 0.0 49 180
- 0.569032 1 0 ack 40 ------- 0 1.0 0.0 49 180
r 0.569136 1 0 ack 40 ------- 0 1.0 0.0 47 172
+ 0.569136 0 1 tcp 1540 ------- 0 0.0 1.0 129 181
- 0.570192 0 1 tcp 1540 ------- 0 0.0 1.0 89 101
r 0.570264 0 1 tcp 1540 ------- 0 0.0 1.0 84 91
+ 0.570264 1 0 ack 40 ------- 0 1.0 0.0 49 182
- 0.570264 1 0 ack 40 ------- 0 1.0 0.0 49 182
r 0.570368 1 0 ack 40 ------- 0 1.0 0.0 48 174
+ 0.570368 0 1 tcp 1540 ------- 0 0.0 1.0 130 183
- 0.571424 0 1 tcp 1540 ------- 0 0.0 1.0 90 103
r 0.571496 0 1 tcp 1540 ------- 0 0.0 1.0 85 93
+ 0.571496 1 0 ack 40 ------- 0 1.0 0.0 49 184
- 0.571496 1 0 ack 40 ------- 0 1.0 0.0 49 184
r 0.5716 1 0 ack 40 ------- 0 1.0 0.0 49 176
+ 0.5716 0 1 tcp 1540 ------- 0 0.0 1.0 131 185
- 0.572656 0 1 tcp 1540 ------- 0 0.0 1.0 91 105
r 0.572728 0 1 tcp 1540 ------- 0 0.0 1.0 86 95
+ 0.572728 1 0 ack 40 ------- 0 1.0 0.0 49 186
- 0.572728 1 0 ack 40 ------- 0 1.0 0.0 49 186
r 0.572832 1 0 ack 40 ------- 0 1.0 0.0 49 178
- 0.573888 0 1 tcp 1540 ------- 0 0.0 1.0 92 107
r 0.57396 0 1 tcp 1540 ------- 0 0.0 1.0 87 97
+ 0.57396 1 0 ack 40 ------- 0 1.0 0.0 49 187
- 0.57396 1 0 ack 40 ------- 0 1.0 0.0 49 187
r 0.574064 1 0 ack 40 ------- 0 1.0 0.0 49 180
- 0.57512 0 1 tcp 1540 ------- 0 0.0 1.0 93 109
r 0.575192 0 1 tcp 1540 ------- 0 0.0 1.0 88 99
+ 0.575192 1 0 ack 40 ------- 0 1.0 0.0 49 188
- 0.575192 1 0 ack 40 ------- 0 1.0 0.0 49 188
r 0.575296 1 0 ack 40 ------- 0 1.0 0.0 49 182
- 0.576352 0 1 tcp 1540 ------- 0 0.0 1.0 94 111
r 0.576424 0 1 tcp 1540 ------- 0 0.0 1.0 89 101
+ 0.576424 1 0 ack 40 ------- 0 1.0 0.0 49 189
- 0.576424 1 0 ack 40 ------- 0 1.0 0.0 49 189
r 0.576528 1 0 ack 40 ------- 0 1.0 0.0 49 184
- 0.577584 0 1 tcp 1540 ------- 0 0.0 1.0 95 113
r 0.577656 0 1 tcp 1540 ------- 0 0.0 1.0 90 103
+ 0.577656 1 0 ack 40 ------- 0 1.0 0.0 49 190
- 0.577656 1 0 ack 40 ------- 0 1.0 0.0 49 190
r 0.57776 1 0 ack 40 ------- 0 1.0 0.0 49 186
- 0.578816 0 1 tcp 1540 ------- 0 0.0 1.0 96 115
r 0.578888 0 1 tcp 1540 ------- 0 0.0 1.0 91 105
+ 0.578888 1 0 ack 40 ------- 0 1.0 0.0 49 191
- 0.578888 1 0 ack 40 ------- 0 1.0 0.0 49 191
r 0.578992 1 0 ack 40 ------- 0 1.0 0.0 49 187
- 0.580048 0 1 tcp 1540 ------- 0 0.0 1.0 97 117
r 0.58012 0 1 tcp 1540 ------- 0 0.0 1.0 92 107
+ 0.58012 1 0 ack 40 ------- 0 1.0 0.0 49 192
- 0.58012 1 0 ack 40 ------- 0 1.0 0.0 49 192
r 0.580224 1 0 ack 40 ------- 0 1.0 0.0 49 188
- 0.58128 0 1 tcp 1540 ------- 0 0.0 1.0 98 119
r 0.581352 0 1 tcp 1540 ------- 0 0.0 1.0 93 109
+ 0.581352 1 0 ack 40 ------- 0 1.0 0.0 49 193
- 0.581352 1 0 ack 40 ------- 0 1.0 0.0 49 193
r 0.581456 1 0 ack 40 ------- 0 1.0 0.0 49 189
- 0.582512 0 1 tcp 1540 ------- 0 0.0 1.0 99 121
r 0.582584 0 1 tcp 1540 ------- 0 0.0 1.0 94 111
+ 0.582584 1 0 ack 40 ------- 0 1.0 0.0 49 194
- 0.582584 1 0 ack 40 ------- 0 1.0 0.0 49 194
r 0.582688 1 0 ack 40 ------- 0 1.0 0.0 49 190
- 0.583744 0 1 tcp 1540 ------- 0 0.0 1.0 100 123
r 0.583816 0 1 tcp 1540 ------- 0 0.0 1.0 95 113
+ 0.583816 1 0 ack 40 ------- 0 1.0 0.0 49 195
- 0.583816 1 0 ack 40 ------- 0 1.0 0.0 49 195
r 0.58392 1 0 ack 40 ------- 0 1.0 0.0 49 191
- 0.584976 0 1 tcp 1540 ------- 0 0.0 1.0 101 125
r 0.585048 0 1 tcp 1540 ------- 0 0.0 1.0 96 115
+ 0.585048 1 0 ack 40 ------- 0 1.0 0.0 49 196
- 0.585048 1 0 ack 40 ------- 0 1.0 0.0 49 196
r 0.585152 1 0 ack 40 ------- 0 1.0 0.0 49 192
- 0.586208 0 1 tcp 1540 ------- 0 0.0 1.0 102 127
r 0.58628 0 1 tcp 1540 ------- 0 0.0 1.0 97 117
+ 0.58628 1 0 ack 40 ------- 0 1.0 0.0 49 197
- 0.58628 1 0 ack 40 ------- 0 1.0 0.0 49 197
r 0.586384 1 0 ack 40 ------- 0 1.0 0.0 49 193
- 0.58744 0 1 tcp 1540 ------- 0 0.0 1.0 103 129
r 0.587512 0 1 tcp 1540 ------- 0 0.0 1.0 98 119
+ 0.587512 1 0 ack 40 ------- 0 1.0 0.0 49 198
- 0.587512 1 0 ack 40 ------- 0 1.0 0.0 49 198
r 0.587616 1 0 ack 40 ------- 0 1.0 0.0 49 194
- 0.588672 0 1 tcp 1540 ------- 0 0.0 1.0 104 131
r 0.588744 0 1 tcp 1540 ------- 0 0.0 1.0 99 121
+ 0.588744 1 0 ack 40 ------- 0 1.0 0.0 49 199
- 0.588744 1 0 ack 40 ------- 0 1.0 0.0 49 199
r 0.588848 1 0 ack 40 ------- 0 1.0 0.0 49 195
- 0.589904 0 1 tcp 1540 ------- 0 0.0 1.0 105 133
r 0.589976 0 1 tcp 1540 ------- 0 0.0 1.0 100 123
+ 0.589976 1 0 ack 40 ------- 0 1.0 0.0 49 200
- 0.589976 1 0 ack 40 ------- 0 1.0 0.0 49 200
r 0.59008 1 0 ack 40 ------- 0 1.0 0.0 49 196
- 0.591136 0 1 tcp 1540 ------- 0 0.0 1.0 106 135
r 0.591208 0 1 tcp 1540 ------- 0 0.0 1.0 101 125
+ 0.591208 1 0 ack 40 ------- 0 1.0 0.0 49 201
- 0.591208 1 0 ack 40 ------- 0 1.0 0.0 49 201
r 0.591312 1 0 ack 40 ------- 0 1.0 0.0 49 197
- 0.592368 0 1 tcp 1540 ------- 0 0.0 1.0 107 137
r 0.59244 0 1 tcp 1540 ------- 0 0.0 1.0 102 127
+ 0.59244 1 0 ack 40 ------- 0 1.0 0.0 49 202
- 0.59244 1 0 ack 40 ------- 0 1.0 0.0 49 202
r 0.592544 1 0 ack 40 ------- 0 1.0 0.0 49 198
- 0.5936 0 1 tcp 1540 ------- 0 0.0 1.0 108 139
r 0.593672 0 1 tcp 1540 ------- 0 0.0 1.0 103 129
+ 0.593672 1 0 ack 40 ------- 0 1.0 0.0 49 203
- 0.593672 1 0 ack 40 ------- 0 1.0 0.0 49 203
r 0.593776 1 0 ack 40 ------- 0 1.0 0.0 49 199
- 0.594832 0 1 tcp 1540 ------- 0 0.0 1.0 109 141
r 0.594904 0 1 tcp 1540 ------- 0 0.0 1.0 104 131
+ 0.594904 1 0 ack 40 ------- 0 1.0 0.0 49 204
- 0.594904 1 0 ack 40 ------- 0 1.0 0.0 49 204
r 0.595008 1 0 ack 40 ------- 0 1.0 0.0 49 200
- 0.596064 0 1 tcp 1540 ------- 0 0.0 1.0 110 143
r 0.596136 0 1 tcp 1540 ------- 0 0.0 1.0 105 133
+ 0.596136 1 0 ack 40 ------- 0 1.0 0.0 49 205
- 0.596136 1 0 ack 40 ------- 0 1.0 0.0 49 205
r 0.59624 1 0 ack 40 ------- 0 1.0 0.0 49 201
- 0.597296 0 1 tcp 1540 ------- 0 0.0 1.0 111 145
r 0.597368 0 1 tcp 1540 ------- 0 0.0 1.0 106 135
+ 0.597368 1 0 ack 40 ------- 0 1.0 0.0 49 206
- 0.597368 1 0 ack 40 ------- 0 1.0 0.0 49 206
r 0.597472 1 0 ack 40 ------- 0 1.0 0.0 49 202
- 0.598528 0 1 tcp 1540 ------- 0 0.0 1.0 112 147
r 0.5986 0 1 tcp 1540 ------- 0 0.0 1.0 107 137
+ 0.5986 1 0 ack 40 ------- 0 1.0 0.0 49 207
- 0.5986 1 0 ack 40 ------- 0 1.0 0.0 49 207
r 0.598704 1 0 ack 40 ------- 0 1.0 0.0 49 203
- 0.59976 0 1 tcp 1540 ------- 0 0.0 1.0 113 149
r 0.599832 0 1 tcp 1540 ------- 0 0.0 1.0 108 139
+ 0.599832 1 0 ack 40 ------- 0 1.0 0.0 49 208
- 0.599832 1 0 ack 40 ------- 0 1.0 0.0 49 208
r 0.599936 1 0 ack 40 ------- 0 1.0 0.0 49 204
- 0.600992 0 1 tcp 1540 ------- 0 0.0 1.0 114 151
r 0.601064 0 1 tcp 1540 ------- 0 0.0 1.0 109 141
+ 0.601064 1 0 ack 40 ------- 0 1.0 0.0 49 209
- 0.601064 1 0 ack 40 ------- 0 1.0 0.0 49 209
r 0.601168 1 0 ack 40 ------- 0 1.0 0.0 49 205
- 0.602224 0 1 tcp 1540 ------- 0 0.0 1.0 115 153
r 0.602296 0 1 tcp 1540 ------- 0 0.0 1.0 110 143
+ 0.602296 1 0 ack 40 ------- 0 1.0 0.0 49 210
- 0.602296 1 0 ack 40 ------- 0 1.0 0.0 49 210
r 0.6024 1 0 ack 40 ------- 0 1.0 0.0 49 206
- 0.603456 0 1 tcp 1540 ------- 0 0.0 1.0 116 155
r 0.603528 0 1 tcp 1540 ------- 0 0.0 1.0 111 145
+ 0.603528 1 0 ack 40 ------- 0 1.0 0.0 49 211
- 0.603528 1 0 ack 40 ------- 0 1.0 0.0 49 211
r 0.603632 1 0 ack 40 ------- 0 1.0 0.0 49 207
- 0.604688 0 1 tcp 1540 ------- 0 0.0 1.0 117 157
r 0.60476 0 1 tcp 1540 ------- 0 0.0 1.0 112 147
+ 0.60476 1 0 ack 40 ------- 0 1.0 0.0 49 212
- 0.60476 1 0 ack 40 ------- 0 1.0 0.0 49 212
r 0.604864 1 0 ack 40 ------- 0 1.0 0.0 49 208
- 0.60592 0 1 tcp 1540 ------- 0 0.0 1.0 118 159
r 0.605992 0 1 tcp 1540 ------- 0 0.0 1.0 113 149
+ 0.605992 1 0 ack 40 ------- 0 1.0 0.0 49 213
- 0.605992 1 0 ack 40 ------- 0 1.0 0.0 49 213
r 0.606096 1 0 ack 40 ------- 0 1.0 0.0 49 209
- 0.607152 0 1 tcp 1540 ------- 0 0.0 1.0 119 161
r 0.607224 0 1 tcp 1540 ------- 0 0.0 1.0 114 151
+ 0.607224 1 0 ack 40 ------- 0 1.0 0.0 49 214
- 0.607224 1 0 ack 40 ------- 0 1.0 0.0 49 214
r 0.607328 1 0 ack 40 ------- 0 1.0 0.0 49 210
- 0.608384 0 1 tcp 1540 ------- 0 0.0 1.0 120 163
r 0.608456 0 1 tcp 1540 ------- 0 0.0 1.0 115 153
+ 0.608456 1 0 ack 40 ------- 0 1.0 0.0 49 215
- 0.608456 1 0 ack 40 ------- 0 1.0 0.0 49 215
r 0.60856 1 0 ack 40 ------- 0 1.0 0.0 49 211
- 0.609616 0 1 tcp 1540 ------- 0 0.0 1.0 121 165
r 0.609688 0 1 tcp 1540 ------- 0 0.0 1.0 116 155
+ 0.609688 1 0 ack 40 ------- 0 1.0 0.0 49 216
- 0.609688 1 0 ack 40 ------- 0 1.0 0.0 49 216
r 0.609792 1 0 ack 40 ------- 0 1.0 0.0 49 212
- 0.610848 0 1 tcp 1540 ------- 0 0.0 1.0 122 167
r 0.61092 0 1 tcp 1540 ------- 0 0.0 1.0 117 157
+ 0.61092 1 0 ack 40 ------- 0 1.0 0.0 49 217
- 0.61092 1 0 ack 40 ------- 0 1.0 0.0 49 217
r 0.611024 1 0 ack 40 ------- 0 1.0 0.0 49 213
- 0.61208 0 1 tcp 1540 ------- 0 0.0 1.0 123 169
r 0.612152 0 1 tcp 1540 ------- 0 0.0 1.0 118 159
+ 0.612152 1 0 ack 40 ------- 0 1.0 0.0 49 218
- 0.612152 1 0 ack 40 ------- 0 1.0 0.0 49 218
r 0.612256 1 0 ack 40 ------- 0 1.0 0.0 49 214
- 0.613312 0 1 tcp 1540 ------- 0 0.0 1.0 124 171
r 0.613384 0 1 tcp 1540 ------- 0 0.0 1.0 119 161
+ 0.613384 1 0 ack 40 ------- 0 1.0 0.0 49 219
- 0.613384 1 0 ack 40 ------- 0 1.0 0.0 49 219
r 0.613488 1 0 ack 40 ------- 0 1.0 0.0 49 215
- 0.614544 0 1 tcp 1540 ------- 0 0.0 1.0 125 173
r 0.614616 0 1 tcp 1540 ------- 0 0.0 1.0 120 163
+ 0.614616 1 0 ack 40 ------- 0 1.0 0.0 49 220
- 0.614616 1 0 ack 40 ------- 0 1.0 0.0 49 220
r 0.61472 1 0 ack 40 ------- 0 1.0 0.0 49 216
- 0.615776 0 1 tcp 1540 ------- 0 0.0 1.0 126 175
r 0.615848 0 1 tcp 1540 ------- 0 0.0 1.0 121 165
+ 0.615848 1 0 ack 40 ------- 0 1.0 0.0 49 221
- 0.615848 1 0 ack 40 ------- 0 1.0 0.0 49 221
r 0.615952 1 0 ack 40 ------- 0 1.0 0.0 49 217
- 0.617008 0 1 tcp 1540 ------- 0 0.0 1.0 127 177
r 0.61708 0 1 tcp 1540 ------- 0 0.0 1.0 122 167
+ 0.61708 1 0 ack 40 ------- 0 1.0 0.0 49 222
- 0.61708 1 0 ack 40 ------- 0 1.0 0.0 49 222
r 0.617184 1 0 ack 40 ------- 0 1.0 0.0 49 218
- 0.61824 0 1 tcp 1540 ------- 0 0.0 1.0 128 179
r 0.618312 0 1 tcp 1540 ------- 0 0.0 1.0 123 169
+ 0.618312 1 0 ack 40 ------- 0 1.0 0.0 49 223
- 0.618312 1 0 ack 40 ------- 0 1.0 0.0 49 223
r 0.618416 1 0 ack 40 ------- 0 1.0 0.0 49 219
- 0.619472 0 1 tcp 1540 ------- 0 0.0 1.0 129 181
r 0.619544 0 1 tcp 1540 ------- 0 0.0 1.0 124 171
+ 0.619544 1 0 ack 40 ------- 0 1.0 0.0 49 224
- 0.619544 1 0 ack 40 ------- 0 1.0 0.0 49 224
r 0.619648 1 0 ack 40 ------- 0 1.0 0.0 49 220
- 0.620704 0 1 tcp 1540 ------- 0 0.0 1.0 130 183
r 0.620776 0 1 tcp 1540 ------- 0 0.0 1.0 125 173
+ 0.620776 1 0 ack 40 ------- 0 1.0 0.0 49 225
- 0.620776 1 0 ack 40 ------- 0 1.0 0.0 49 225
r 0.62088 1 0 ack 40 ------- 0 1.0 0.0 49 221
- 0.621936 0 1 tcp 1540 ------- 0 0.0 1.0 131 185
r 0.622008 0 1 tcp 1540 ------- 0 0.0 1.0 126 175
+ 0.622008 1 0 ack 40 ------- 0 1.0 0.0 49 226
- 0.622008 1 0 ack 40 ------- 0 1.0 0.0 49 226
r 0.622112 1 0 ack 40 ------- 0 1.0 0.0 49 222
r 0.62324 0 1 tcp 1540 ------- 0 0.0 1.0 127 177
+ 0.62324 1 0 ack 40 ------- 0 1.0 0.0 49 227
- 0.62324 1 0 ack 40 ------- 0 1.0 0.0 49 227