h 0.0001 1 40 cbr 1024 ------- 0 1.0 0.0 0 0
h 0.0001 10 40 cbr 1024 ------- 0 10.0 0.9 0 1
+ 0.000101 1 40 cbr 1024 ------- 0 1.0 0.0 0 0
- 0.000101 1 40 cbr 1024 ------- 0 1.0 0.0 0 0
+ 0.000101 10 40 cbr 1024 ------- 0 10.0 0.9 0 1
- 0.000101 10 40 cbr 1024 ------- 0 10.0 0.9 0 1
h 0.00011 11 40 cbr 1024 ------- 0 11.0 0.10 0 2
+ 0.000111 11 40 cbr 1024 ------- 0 11.0 0.10 0 2
- 0.000111 11 40 cbr 1024 ------- 0 11.0 0.10 0 2
h 0.00012 12 40 cbr 1024 ------- 0 12.0 0.11 0 3
+ 0.000121 12 40 cbr 1024 ------- 0 12.0 0.11 0 3
- 0.000121 12 40 cbr 1024 ------- 0 12.0 0.11 0 3
h 0.00013 13 40 cbr 1024 ------- 0 13.0 0.12 0 4
+ 0.000131 13 40 cbr 1024 ------- 0 13.0 0.12 0 4
- 0.000131 13 40 cbr 1024 ------- 0 13.0 0.12 0 4
h 0.00014 14 40 cbr 1024 ------- 0 14.0 0.13 0 5
+ 0.000141 14 40 cbr 1024 ------- 0 14.0 0.13 0 5
- 0.000141 14 40 cbr 1024 ------- 0 14.0 0.13 0 5
h 0.00015 15 40 cbr 1024 ------- 0 15.0 0.14 0 6
+ 0.000151 15 40 cbr 1024 ------- 0 15.0 0.14 0 6
- 0.000151 15 40 cbr 1024 ------- 0 15.0 0.14 0 6
h 0.00016 16 40 cbr 1024 ------- 0 16.0 0.15 0 7
+ 0.000161 16 40 cbr 1024 ------- 0 16.0 0.15 0 7
- 0.000161 16 40 cbr 1024 ------- 0 16.0 0.15 0 7
h 0.00017 17 40 cbr 1024 ------- 0 17.0 0.16 0 8
+ 0.000171 17 40 cbr 1024 ------- 0 17.0 0.16 0 8
- 0.000171 17 40 cbr 1024 ------- 0 17.0 0.16 0 8
h 0.00018 18 40 cbr 1024 ------- 0 18.0 0.17 0 9
+ 0.000181 18 40 cbr 1024 ------- 0 18.0 0.17 0 9
- 0.000181 18 40 cbr 1024 ------- 0 18.0 0.17 0 9
h 0.00019 19 40 cbr 1024 ------- 0 19.0 0.18 0 10
+ 0.000191 19 40 cbr 1024 ------- 0 19.0 0.18 0 10
- 0.000191 19 40 cbr 1024 ------- 0 19.0 0.18 0 10
h 0.0002 2 40 cbr 1024 ------- 0 2.0 0.1 0 11
h 0.0002 20 40 cbr 1024 ------- 0 20.0 0.19 0 12
+ 0.000201 2 40 cbr 1024 ------- 0 2.0 0.1 0 11
- 0.000201 2 40 cbr 1024 ------- 0 2.0 0.1 0 11
+ 0.000201 20 40 cbr 1024 ------- 0 20.0 0.19 0 12
- 0.000201 20 40 cbr 1024 ------- 0 20.0 0.19 0 12
h 0.00021 21 40 cbr 1024 ------- 0 21.0 0.20 0 13
+ 0.000211 21 40 cbr 1024 ------- 0 21.0 0.20 0 13
- 0.000211 21 40 cbr 1024 ------- 0 21.0 0.20 0 13
h 0.00022 22 40 cbr 1024 ------- 0 22.0 0.21 0 14
+ 0.000221 22 40 cbr 1024 ------- 0 22.0 0.21 0 14
- 0.000221 22 40 cbr 1024 ------- 0 22.0 0.21 0 14
h 0.00023 23 40 cbr 1024 ------- 0 23.0 0.22 0 15
+ 0.000231 23 40 cbr 1024 ------- 0 23.0 0.22 0 15
- 0.000231 23 40 cbr 1024 ------- 0 23.0 0.22 0 15
h 0.00024 24 40 cbr 1024 ------- 0 24.0 0.23 0 16
+ 0.000241 24 40 cbr 1024 ------- 0 24.0 0.23 0 16
- 0.000241 24 40 cbr 1024 ------- 0 24.0 0.23 0 16
h 0.00025 25 40 cbr 1024 ------- 0 25.0 0.24 0 17
+ 0.000251 25 40 cbr 1024 ------- 0 25.0 0.24 0 17
- 0.000251 25 40 cbr 1024 ------- 0 25.0 0.24 0 17
h 0.00026 26 40 cbr 1024 ------- 0 26.0 0.25 0 18
+ 0.000261 26 40 cbr 1024 ------- 0 26.0 0.25 0 18
- 0.000261 26 40 cbr 1024 ------- 0 26.0 0.25 0 18
h 0.00027 27 40 cbr 1024 ------- 0 27.0 0.26 0 19
+ 0.000271 27 40 cbr 1024 ------- 0 27.0 0.26 0 19
- 0.000271 27 40 cbr 1024 ------- 0 27.0 0.26 0 19
h 0.00028 28 40 cbr 1024 ------- 0 28.0 0.27 0 20
+ 0.000281 28 40 cbr 1024 ------- 0 28.0 0.27 0 20
- 0.000281 28 40 cbr 1024 ------- 0 28.0 0.27 0 20
h 0.00029 29 40 cbr 1024 ------- 0 29.0 0.28 0 21
+ 0.000291 29 40 cbr 1024 ------- 0 29.0 0.28 0 21
- 0.000291 29 40 cbr 1024 ------- 0 29.0 0.28 0 21
h 0.0003 3 40 cbr 1024 ------- 0 3.0 0.2 0 22
h 0.0003 30 40 cbr 1024 ------- 0 30.0 0.29 0 23
+ 0.000301 3 40 cbr 1024 ------- 0 3.0 0.2 0 22
- 0.000301 3 40 cbr 1024 ------- 0 3.0 0.2 0 22
+ 0.000301 30 40 cbr 1024 ------- 0 30.0 0.29 0 23
- 0.000301 30 40 cbr 1024 ------- 0 30.0 0.29 0 23
h 0.00031 31 40 cbr 1024 ------- 0 31.0 0.30 0 24
+ 0.000311 31 40 cbr 1024 ------- 0 31.0 0.30 0 24
- 0.000311 31 40 cbr 1024 ------- 0 31.0 0.30 0 24
h 0.00032 32 40 cbr 1024 ------- 0 32.0 0.31 0 25
+ 0.000321 32 40 cbr 1024 ------- 0 32.0 0.31 0 25
- 0.000321 32 40 cbr 1024 ------- 0 32.0 0.31 0 25
h 0.00033 33 40 cbr 1024 ------- 0 33.0 0.32 0 26
+ 0.000331 33 40 cbr 1024 ------- 0 33.0 0.32 0 26
- 0.000331 33 40 cbr 1024 ------- 0 33.0 0.32 0 26
h 0.00034 34 40 cbr 1024 ------- 0 34.0 0.33 0 27
+ 0.000341 34 40 cbr 1024 ------- 0 34.0 0.33 0 27
- 0.000341 34 40 cbr 1024 ------- 0 34.0 0.33 0 27
h 0.00035 35 40 cbr 1024 ------- 0 35.0 0.34 0 28
+ 0.000351 35 40 cbr 1024 ------- 0 35.0 0.34 0 28
- 0.000351 35 40 cbr 1024 ------- 0 35.0 0.34 0 28
h 0.00036 36 40 cbr 1024 ------- 0 36.0 0.35 0 29
+ 0.000361 36 40 cbr 1024 ------- 0 36.0 0.35 0 29
- 0.000361 36 40 cbr 1024 ------- 0 36.0 0.35 0 29
h 0.00037 37 40 cbr 1024 ------- 0 37.0 0.36 0 30
+ 0.000371 37 40 cbr 1024 ------- 0 37.0 0.36 0 30
- 0.000371 37 40 cbr 1024 ------- 0 37.0 0.36 0 30
h 0.00038 38 40 cbr 1024 ------- 0 38.0 0.37 0 31
+ 0.000381 38 40 cbr 1024 ------- 0 38.0 0.37 0 31
- 0.000381 38 40 cbr 1024 ------- 0 38.0 0.37 0 31
h 0.00039 39 40 cbr 1024 ------- 0 39.0 0.38 0 32
+ 0.000391 39 40 cbr 1024 ------- 0 39.0 0.38 0 32
- 0.000391 39 40 cbr 1024 ------- 0 39.0 0.38 0 32
h 0.0004 4 40 cbr 1024 ------- 0 4.0 0.3 0 33
+ 0.000401 4 40 cbr 1024 ------- 0 4.0 0.3 0 33
- 0.000401 4 40 cbr 1024 ------- 0 4.0 0.3 0 33
h 0.0005 5 40 cbr 1024 ------- 0 5.0 0.4 0 34
+ 0.000501 5 40 cbr 1024 ------- 0 5.0 0.4 0 34
- 0.000501 5 40 cbr 1024 ------- 0 5.0 0.4 0 34
h 0.0006 6 40 cbr 1024 ------- 0 6.0 0.5 0 35
+ 0.000601 6 40 cbr 1024 ------- 0 6.0 0.5 0 35
- 0.000601 6 40 cbr 1024 ------- 0 6.0 0.5 0 35
h 0.0007 7 40 cbr 1024 ------- 0 7.0 0.6 0 36
+ 0.000701 7 40 cbr 1024 ------- 0 7.0 0.6 0 36
- 0.000701 7 40 cbr 1024 ------- 0 7.0 0.6 0 36
h 0.0008 8 40 cbr 1024 ------- 0 8.0 0.7 0 37
+ 0.000801 8 40 cbr 1024 ------- 0 8.0 0.7 0 37
- 0.000801 8 40 cbr 1024 ------- 0 8.0 0.7 0 37
h 0.0009 9 40 cbr 1024 ------- 0 9.0 0.8 0 38
+ 0.000901 9 40 cbr 1024 ------- 0 9.0 0.8 0 38
- 0.000901 9 40 cbr 1024 ------- 0 9.0 0.8 0 38
r 0.00097 40 0 cbr 1024 ------- 0 13.0 0.12 0 4
r 0.001848 40 0 cbr 1024 ------- 0 33.0 0.32 0 26
r 0.002776 40 0 cbr 1024 ------- 0 26.0 0.25 0 18
r 0.003637 40 0 cbr 1024 ------- 0 2.0 0.1 0 11
r 0.004617 40 0 cbr 1024 ------- 0 36.0 0.35 0 29
r 0.005648 40 0 cbr 1024 ------- 0 18.0 0.17 0 9
r 0.006809 40 0 cbr 1024 ------- 0 11.0 0.10 0 2
r 0.007687 40 0 cbr 1024 ------- 0 23.0 0.22 0 15
h 0.008298 1 40 cbr 1024 ------- 0 1.0 0.0 1 39
+ 0.008299 1 40 cbr 1024 ------- 0 1.0 0.0 1 39
r 0.00855 40 0 cbr 1024 ------- 0 1.0 0.0 0 0
- 0.008555 1 40 cbr 1024 ------- 0 1.0 0.0 1 39
h 0.009063 17 40 cbr 1024 ------- 0 17.0 0.16 1 40
+ 0.009064 17 40 cbr 1024 ------- 0 17.0 0.16 1 40
r 0.009462 40 0 cbr 1024 ------- 0 1.0 0.0 1 39
h 0.009954 22 40 cbr 1024 ------- 0 22.0 0.21 1 41
+ 0.009955 22 40 cbr 1024 ------- 0 22.0 0.21 1 41
h 0.010049 9 40 cbr 1024 ------- 0 9.0 0.8 1 42
+ 0.01005 9 40 cbr 1024 ------- 0 9.0 0.8 1 42
h 0.010247 19 40 cbr 1024 ------- 0 19.0 0.18 1 43
+ 0.010248 19 40 cbr 1024 ------- 0 19.0 0.18 1 43
h 0.010361 38 40 cbr 1024 ------- 0 38.0 0.37 1 44
+ 0.010362 38 40 cbr 1024 ------- 0 38.0 0.37 1 44
h 0.010828 8 40 cbr 1024 ------- 0 8.0 0.7 1 45
+ 0.010828 8 40 cbr 1024 ------- 0 8.0 0.7 1 45
r 0.010896 40 0 cbr 1024 ------- 0 31.0 0.30 0 24
h 0.011041 16 40 cbr 1024 ------- 0 16.0 0.15 1 46
+ 0.011042 16 40 cbr 1024 ------- 0 16.0 0.15 1 46
h 0.011266 21 40 cbr 1024 ------- 0 21.0 0.20 1 47
+ 0.011267 21 40 cbr 1024 ------- 0 21.0 0.20 1 47
h 0.011662 4 40 cbr 1024 ------- 0 4.0 0.3 1 48
+ 0.011663 4 40 cbr 1024 ------- 0 4.0 0.3 1 48
h 0.01206 31 40 cbr 1024 ------- 0 31.0 0.30 1 49
+ 0.012061 31 40 cbr 1024 ------- 0 31.0 0.30 1 49
- 0.012061 31 40 cbr 1024 ------- 0 31.0 0.30 1 49
r 0.012183 40 0 cbr 1024 ------- 0 27.0 0.26 0 19
h 0.012464 32 40 cbr 1024 ------- 0 32.0 0.31 1 50
+ 0.012465 32 40 cbr 1024 ------- 0 32.0 0.31 1 50
h 0.012671 25 40 cbr 1024 ------- 0 25.0 0.24 1 51
+ 0.012671 25 40 cbr 1024 ------- 0 25.0 0.24 1 51
r 0.013044 40 0 cbr 1024 ------- 0 31.0 0.30 1 49
h 0.013396 14 40 cbr 1024 ------- 0 14.0 0.13 1 52
+ 0.013397 14 40 cbr 1024 ------- 0 14.0 0.13 1 52
r 0.013907 40 0 cbr 1024 ------- 0 38.0 0.37 0 31
- 0.013911 38 40 cbr 1024 ------- 0 38.0 0.37 1 44
h 0.014146 24 40 cbr 1024 ------- 0 24.0 0.23 1 53
+ 0.014147 24 40 cbr 1024 ------- 0 24.0 0.23 1 53
r 0.014794 40 0 cbr 1024 ------- 0 15.0 0.14 0 6
h 0.015148 26 40 cbr 1024 ------- 0 26.0 0.25 1 54
+ 0.015149 26 40 cbr 1024 ------- 0 26.0 0.25 1 54
- 0.015149 26 40 cbr 1024 ------- 0 26.0 0.25 1 54
h 0.015205 39 40 cbr 1024 ------- 0 39.0 0.38 1 55
+ 0.015205 39 40 cbr 1024 ------- 0 39.0 0.38 1 55
h 0.015206 37 40 cbr 1024 ------- 0 37.0 0.36 1 56
+ 0.015207 37 40 cbr 1024 ------- 0 37.0 0.36 1 56
h 0.015333 20 40 cbr 1024 ------- 0 20.0 0.19 1 57
+ 0.015334 20 40 cbr 1024 ------- 0 20.0 0.19 1 57
h 0.01553 11 40 cbr 1024 ------- 0 11.0 0.10 1 58
+ 0.015531 11 40 cbr 1024 ------- 0 11.0 0.10 1 58
- 0.015531 11 40 cbr 1024 ------- 0 11.0 0.10 1 58
r 0.015757 40 0 cbr 1024 ------- 0 38.0 0.37 1 44
h 0.016109 28 40 cbr 1024 ------- 0 28.0 0.27 1 59
+ 0.01611 28 40 cbr 1024 ------- 0 28.0 0.27 1 59
r 0.016723 40 0 cbr 1024 ------- 0 4.0 0.3 0 33
- 0.016727 4 40 cbr 1024 ------- 0 4.0 0.3 1 48
h 0.01696 27 40 cbr 1024 ------- 0 27.0 0.26 1 60
+ 0.01696 27 40 cbr 1024 ------- 0 27.0 0.26 1 60
- 0.01696 27 40 cbr 1024 ------- 0 27.0 0.26 1 60
h 0.0174 10 40 cbr 1024 ------- 0 10.0 0.9 1 61
+ 0.0174 10 40 cbr 1024 ------- 0 10.0 0.9 1 61
r 0.017584 40 0 cbr 1024 ------- 0 4.0 0.3 1 48
r 0.018444 40 0 cbr 1024 ------- 0 27.0 0.26 1 60
h 0.018789 13 40 cbr 1024 ------- 0 13.0 0.12 1 62
+ 0.01879 13 40 cbr 1024 ------- 0 13.0 0.12 1 62
- 0.01879 13 40 cbr 1024 ------- 0 13.0 0.12 1 62
h 0.018859 18 40 cbr 1024 ------- 0 18.0 0.17 1 63
+ 0.01886 18 40 cbr 1024 ------- 0 18.0 0.17 1 63
- 0.01886 18 40 cbr 1024 ------- 0 18.0 0.17 1 63
r 0.019485 40 0 cbr 1024 ------- 0 9.0 0.8 0 38
- 0.01949 9 40 cbr 1024 ------- 0 9.0 0.8 1 42
h 0.01963 34 40 cbr 1024 ------- 0 34.0 0.33 1 64
+ 0.019631 34 40 cbr 1024 ------- 0 34.0 0.33 1 64
h 0.019825 29 40 cbr 1024 ------- 0 29.0 0.28 1 65
+ 0.019826 29 40 cbr 1024 ------- 0 29.0 0.28 1 65
r 0.020342 40 0 cbr 1024 ------- 0 18.0 0.17 1 63
h 0.020497 21 40 cbr 1024 ------- 0 21.0 0.20 2 66
+ 0.020498 21 40 cbr 1024 ------- 0 21.0 0.20 2 66
h 0.020633 16 40 cbr 1024 ------- 0 16.0 0.15 2 67
+ 0.020634 16 40 cbr 1024 ------- 0 16.0 0.15 2 67
h 0.02103 35 40 cbr 1024 ------- 0 35.0 0.34 1 68
+ 0.021031 35 40 cbr 1024 ------- 0 35.0 0.34 1 68
r 0.021203 40 0 cbr 1024 ------- 0 9.0 0.8 1 42
h 0.021405 12 40 cbr 1024 ------- 0 12.0 0.11 1 69
+ 0.021406 12 40 cbr 1024 ------- 0 12.0 0.11 1 69
h 0.021482 22 40 cbr 1024 ------- 0 22.0 0.21 2 70
+ 0.021483 22 40 cbr 1024 ------- 0 22.0 0.21 2 70
h 0.021644 23 40 cbr 1024 ------- 0 23.0 0.22 1 71
+ 0.021645 23 40 cbr 1024 ------- 0 23.0 0.22 1 71
- 0.021645 23 40 cbr 1024 ------- 0 23.0 0.22 1 71
h 0.022044 15 40 cbr 1024 ------- 0 15.0 0.14 1 72
+ 0.022045 15 40 cbr 1024 ------- 0 15.0 0.14 1 72
- 0.022045 15 40 cbr 1024 ------- 0 15.0 0.14 1 72
h 0.022252 30 40 cbr 1024 ------- 0 30.0 0.29 1 73
+ 0.022253 30 40 cbr 1024 ------- 0 30.0 0.29 1 73
r 0.022339 40 0 cbr 1024 ------- 0 11.0 0.10 1 58
h 0.022467 33 40 cbr 1024 ------- 0 33.0 0.32 1 74
+ 0.022467 33 40 cbr 1024 ------- 0 33.0 0.32 1 74
- 0.022467 33 40 cbr 1024 ------- 0 33.0 0.32 1 74
h 0.022478 2 40 cbr 1024 ------- 0 2.0 0.1 1 75
+ 0.022479 2 40 cbr 1024 ------- 0 2.0 0.1 1 75
- 0.022479 2 40 cbr 1024 ------- 0 2.0 0.1 1 75
h 0.022588 1 40 cbr 1024 ------- 0 1.0 0.0 2 76
+ 0.022589 1 40 cbr 1024 ------- 0 1.0 0.0 2 76
- 0.022589 1 40 cbr 1024 ------- 0 1.0 0.0 2 76
h 0.022616 3 40 cbr 1024 ------- 0 3.0 0.2 1 77
+ 0.022617 3 40 cbr 1024 ------- 0 3.0 0.2 1 77
h 0.023232 5 40 cbr 1024 ------- 0 5.0 0.4 1 78
+ 0.023233 5 40 cbr 1024 ------- 0 5.0 0.4 1 78
r 0.023268 40 0 cbr 1024 ------- 0 15.0 0.14 1 72
h 0.023379 36 40 cbr 1024 ------- 0 36.0 0.35 1 79
+ 0.02338 36 40 cbr 1024 ------- 0 36.0 0.35 1 79
- 0.02338 36 40 cbr 1024 ------- 0 36.0 0.35 1 79
h 0.023496 7 40 cbr 1024 ------- 0 7.0 0.6 1 80
+ 0.023497 7 40 cbr 1024 ------- 0 7.0 0.6 1 80
r 0.024128 40 0 cbr 1024 ------- 0 33.0 0.32 1 74
h 0.024296 6 40 cbr 1024 ------- 0 6.0 0.5 1 81
+ 0.024297 6 40 cbr 1024 ------- 0 6.0 0.5 1 81
h 0.024373 19 40 cbr 1024 ------- 0 19.0 0.18 2 82
+ 0.024374 19 40 cbr 1024 ------- 0 19.0 0.18 2 82
r 0.024989 40 0 cbr 1024 ------- 0 1.0 0.0 2 76
h 0.025157 37 40 cbr 1024 ------- 0 37.0 0.36 2 83
+ 0.025158 37 40 cbr 1024 ------- 0 37.0 0.36 2 83
r 0.025901 40 0 cbr 1024 ------- 0 36.0 0.35 1 79
h 0.02653 39 40 cbr 1024 ------- 0 39.0 0.38 2 84
+ 0.026531 39 40 cbr 1024 ------- 0 39.0 0.38 2 84
h 0.026681 17 40 cbr 1024 ------- 0 17.0 0.16 2 85
+ 0.026682 17 40 cbr 1024 ------- 0 17.0 0.16 2 85
r 0.027335 40 0 cbr 1024 ------- 0 23.0 0.22 1 71
r 0.028247 40 0 cbr 1024 ------- 0 2.0 0.1 1 75
h 0.028428 24 40 cbr 1024 ------- 0 24.0 0.23 2 86
+ 0.028429 24 40 cbr 1024 ------- 0 24.0 0.23 2 86
h 0.028901 32 40 cbr 1024 ------- 0 32.0 0.31 2 87
+ 0.028902 32 40 cbr 1024 ------- 0 32.0 0.31 2 87
h 0.029007 8 40 cbr 1024 ------- 0 8.0 0.7 2 88
+ 0.029008 8 40 cbr 1024 ------- 0 8.0 0.7 2 88
r 0.029091 40 0 cbr 1024 ------- 0 13.0 0.12 1 62
h 0.029209 4 40 cbr 1024 ------- 0 4.0 0.3 2 89
+ 0.02921 4 40 cbr 1024 ------- 0 4.0 0.3 2 89
- 0.02921 4 40 cbr 1024 ------- 0 4.0 0.3 2 89
h 0.029307 20 40 cbr 1024 ------- 0 20.0 0.19 2 90
+ 0.029308 20 40 cbr 1024 ------- 0 20.0 0.19 2 90
h 0.029431 28 40 cbr 1024 ------- 0 28.0 0.27 2 91
+ 0.029432 28 40 cbr 1024 ------- 0 28.0 0.27 2 91
r 0.029935 40 0 cbr 1024 ------- 0 28.0 0.27 0 20
- 0.029939 28 40 cbr 1024 ------- 0 28.0 0.27 1 59
h 0.030208 22 40 cbr 1024 ------- 0 22.0 0.21 3 92
+ 0.030209 22 40 cbr 1024 ------- 0 22.0 0.21 3 92
h 0.030534 14 40 cbr 1024 ------- 0 14.0 0.13 2 93
+ 0.030535 14 40 cbr 1024 ------- 0 14.0 0.13 2 93
r 0.030954 40 0 cbr 1024 ------- 0 5.0 0.4 0 34
- 0.030959 5 40 cbr 1024 ------- 0 5.0 0.4 1 78
h 0.031244 21 40 cbr 1024 ------- 0 21.0 0.20 3 94
+ 0.031244 21 40 cbr 1024 ------- 0 21.0 0.20 3 94
h 0.031614 38 40 cbr 1024 ------- 0 38.0 0.37 2 95
+ 0.031615 38 40 cbr 1024 ------- 0 38.0 0.37 2 95
- 0.031615 38 40 cbr 1024 ------- 0 38.0 0.37 2 95
h 0.031663 25 40 cbr 1024 ------- 0 25.0 0.24 2 96
+ 0.031664 25 40 cbr 1024 ------- 0 25.0 0.24 2 96
r 0.031866 40 0 cbr 1024 ------- 0 5.0 0.4 1 78
h 0.031893 31 40 cbr 1024 ------- 0 31.0 0.30 2 97
+ 0.031894 31 40 cbr 1024 ------- 0 31.0 0.30 2 97
- 0.031894 31 40 cbr 1024 ------- 0 31.0 0.30 2 97
h 0.031905 5 40 cbr 1024 ------- 0 5.0 0.4 2 98
+ 0.031905 5 40 cbr 1024 ------- 0 5.0 0.4 2 98
- 0.031905 5 40 cbr 1024 ------- 0 5.0 0.4 2 98
h 0.032497 15 40 cbr 1024 ------- 0 15.0 0.14 2 99
+ 0.032498 15 40 cbr 1024 ------- 0 15.0 0.14 2 99
- 0.032498 15 40 cbr 1024 ------- 0 15.0 0.14 2 99
r 0.032763 40 0 cbr 1024 ------- 0 31.0 0.30 2 97
h 0.033129 11 40 cbr 1024 ------- 0 11.0 0.10 2 100
+ 0.03313 11 40 cbr 1024 ------- 0 11.0 0.10 2 100
- 0.03313 11 40 cbr 1024 ------- 0 11.0 0.10 2 100
h 0.033731 35 40 cbr 1024 ------- 0 35.0 0.34 2 101
+ 0.033732 35 40 cbr 1024 ------- 0 35.0 0.34 2 101
r 0.033743 40 0 cbr 1024 ------- 0 15.0 0.14 2 99
h 0.034399 9 40 cbr 1024 ------- 0 9.0 0.8 2 102
+ 0.0344 9 40 cbr 1024 ------- 0 9.0 0.8 2 102
- 0.0344 9 40 cbr 1024 ------- 0 9.0 0.8 2 102
r 0.034655 40 0 cbr 1024 ------- 0 11.0 0.10 2 100
h 0.034986 3 40 cbr 1024 ------- 0 3.0 0.2 2 103
+ 0.034987 3 40 cbr 1024 ------- 0 3.0 0.2 2 103
h 0.035132 26 40 cbr 1024 ------- 0 26.0 0.25 2 104
+ 0.035133 26 40 cbr 1024 ------- 0 26.0 0.25 2 104
h 0.035254 29 40 cbr 1024 ------- 0 29.0 0.28 2 105
+ 0.035255 29 40 cbr 1024 ------- 0 29.0 0.28 2 105
r 0.035567 40 0 cbr 1024 ------- 0 9.0 0.8 2 102
h 0.036409 23 40 cbr 1024 ------- 0 23.0 0.22 2 106
+ 0.03641 23 40 cbr 1024 ------- 0 23.0 0.22 2 106
- 0.03641 23 40 cbr 1024 ------- 0 23.0 0.22 2 106
r 0.03678 40 0 cbr 1024 ------- 0 10.0 0.9 0 1
- 0.036784 10 40 cbr 1024 ------- 0 10.0 0.9 1 61
h 0.03691 27 40 cbr 1024 ------- 0 27.0 0.26 2 107
+ 0.036911 27 40 cbr 1024 ------- 0 27.0 0.26 2 107
- 0.036911 27 40 cbr 1024 ------- 0 27.0 0.26 2 107
h 0.036951 18 40 cbr 1024 ------- 0 18.0 0.17 2 108
+ 0.036952 18 40 cbr 1024 ------- 0 18.0 0.17 2 108
- 0.036952 18 40 cbr 1024 ------- 0 18.0 0.17 2 108
r 0.03764 40 0 cbr 1024 ------- 0 10.0 0.9 1 61
h 0.038377 30 40 cbr 1024 ------- 0 30.0 0.29 2 109
+ 0.038378 30 40 cbr 1024 ------- 0 30.0 0.29 2 109
r 0.038501 40 0 cbr 1024 ------- 0 23.0 0.22 2 106
h 0.038985 2 40 cbr 1024 ------- 0 2.0 0.1 2 110
+ 0.038986 2 40 cbr 1024 ------- 0 2.0 0.1 2 110
- 0.038986 2 40 cbr 1024 ------- 0 2.0 0.1 2 110
h 0.039064 36 40 cbr 1024 ------- 0 36.0 0.35 2 111
+ 0.039065 36 40 cbr 1024 ------- 0 36.0 0.35 2 111
- 0.039065 36 40 cbr 1024 ------- 0 36.0 0.35 2 111
h 0.039276 10 40 cbr 1024 ------- 0 10.0 0.9 2 112
+ 0.039277 10 40 cbr 1024 ------- 0 10.0 0.9 2 112
- 0.039277 10 40 cbr 1024 ------- 0 10.0 0.9 2 112
r 0.039377 40 0 cbr 1024 ------- 0 28.0 0.27 1 59
- 0.039382 28 40 cbr 1024 ------- 0 28.0 0.27 2 91
h 0.040015 16 40 cbr 1024 ------- 0 16.0 0.15 3 113
+ 0.040016 16 40 cbr 1024 ------- 0 16.0 0.15 3 113
r 0.040251 40 0 cbr 1024 ------- 0 28.0 0.27 2 91
r 0.041111 40 0 cbr 1024 ------- 0 2.0 0.1 2 110
r 0.042239 40 0 cbr 1024 ------- 0 5.0 0.4 2 98
h 0.042987 39 40 cbr 1024 ------- 0 39.0 0.38 3 114
+ 0.042988 39 40 cbr 1024 ------- 0 39.0 0.38 3 114
h 0.043154 13 40 cbr 1024 ------- 0 13.0 0.12 2 115
+ 0.043155 13 40 cbr 1024 ------- 0 13.0 0.12 2 115
- 0.043155 13 40 cbr 1024 ------- 0 13.0 0.12 2 115
r 0.043177 40 0 cbr 1024 ------- 0 35.0 0.34 0 28
- 0.043182 35 40 cbr 1024 ------- 0 35.0 0.34 1 68
h 0.043665 5 40 cbr 1024 ------- 0 5.0 0.4 3 116
+ 0.043666 5 40 cbr 1024 ------- 0 5.0 0.4 3 116
- 0.043666 5 40 cbr 1024 ------- 0 5.0 0.4 3 116
h 0.044016 34 40 cbr 1024 ------- 0 34.0 0.33 2 117
+ 0.044017 34 40 cbr 1024 ------- 0 34.0 0.33 2 117
h 0.044032 24 40 cbr 1024 ------- 0 24.0 0.23 3 118
+ 0.044033 24 40 cbr 1024 ------- 0 24.0 0.23 3 118
r 0.044225 40 0 cbr 1024 ------- 0 35.0 0.34 1 68
- 0.04423 35 40 cbr 1024 ------- 0 35.0 0.34 2 101
h 0.044383 11 40 cbr 1024 ------- 0 11.0 0.10 3 119
+ 0.044384 11 40 cbr 1024 ------- 0 11.0 0.10 3 119
- 0.044384 11 40 cbr 1024 ------- 0 11.0 0.10 3 119
h 0.044493 21 40 cbr 1024 ------- 0 21.0 0.20 4 120
+ 0.044494 21 40 cbr 1024 ------- 0 21.0 0.20 4 120
h 0.044818 33 40 cbr 1024 ------- 0 33.0 0.32 2 121
+ 0.044819 33 40 cbr 1024 ------- 0 33.0 0.32 2 121
- 0.044819 33 40 cbr 1024 ------- 0 33.0 0.32 2 121
r 0.045082 40 0 cbr 1024 ------- 0 5.0 0.4 3 116
h 0.045543 12 40 cbr 1024 ------- 0 12.0 0.11 2 122
+ 0.045544 12 40 cbr 1024 ------- 0 12.0 0.11 2 122
h 0.045612 1 40 cbr 1024 ------- 0 1.0 0.0 3 123
+ 0.045613 1 40 cbr 1024 ------- 0 1.0 0.0 3 123
- 0.045613 1 40 cbr 1024 ------- 0 1.0 0.0 3 123
h 0.045831 14 40 cbr 1024 ------- 0 14.0 0.13 3 124
+ 0.045831 14 40 cbr 1024 ------- 0 14.0 0.13 3 124
r 0.045943 40 0 cbr 1024 ------- 0 11.0 0.10 3 119
h 0.045966 6 40 cbr 1024 ------- 0 6.0 0.5 2 125
+ 0.045967 6 40 cbr 1024 ------- 0 6.0 0.5 2 125
h 0.04605 38 40 cbr 1024 ------- 0 38.0 0.37 3 126
+ 0.046051 38 40 cbr 1024 ------- 0 38.0 0.37 3 126
h 0.046233 37 40 cbr 1024 ------- 0 37.0 0.36 3 127
+ 0.046234 37 40 cbr 1024 ------- 0 37.0 0.36 3 127
h 0.046503 8 40 cbr 1024 ------- 0 8.0 0.7 3 128
+ 0.046504 8 40 cbr 1024 ------- 0 8.0 0.7 3 128
h 0.046564 27 40 cbr 1024 ------- 0 27.0 0.26 3 129
+ 0.046565 27 40 cbr 1024 ------- 0 27.0 0.26 3 129
h 0.046588 7 40 cbr 1024 ------- 0 7.0 0.6 2 130
+ 0.046588 7 40 cbr 1024 ------- 0 7.0 0.6 2 130
r 0.046803 40 0 cbr 1024 ------- 0 1.0 0.0 3 123
h 0.046903 18 40 cbr 1024 ------- 0 18.0 0.17 3 131
+ 0.046904 18 40 cbr 1024 ------- 0 18.0 0.17 3 131
h 0.046956 29 40 cbr 1024 ------- 0 29.0 0.28 3 132
+ 0.046957 29 40 cbr 1024 ------- 0 29.0 0.28 3 132
h 0.046975 19 40 cbr 1024 ------- 0 19.0 0.18 3 133
+ 0.046976 19 40 cbr 1024 ------- 0 19.0 0.18 3 133
h 0.047402 4 40 cbr 1024 ------- 0 4.0 0.3 3 134
+ 0.047403 4 40 cbr 1024 ------- 0 4.0 0.3 3 134
h 0.04757 28 40 cbr 1024 ------- 0 28.0 0.27 3 135
+ 0.047571 28 40 cbr 1024 ------- 0 28.0 0.27 3 135
- 0.047571 28 40 cbr 1024 ------- 0 28.0 0.27 3 135
r 0.047795 40 0 cbr 1024 ------- 0 10.0 0.9 2 112
r 0.048707 40 0 cbr 1024 ------- 0 28.0 0.27 3 135
h 0.049011 3 40 cbr 1024 ------- 0 3.0 0.2 3 136
+ 0.049012 3 40 cbr 1024 ------- 0 3.0 0.2 3 136
h 0.049549 9 40 cbr 1024 ------- 0 9.0 0.8 3 137
+ 0.04955 9 40 cbr 1024 ------- 0 9.0 0.8 3 137
- 0.04955 9 40 cbr 1024 ------- 0 9.0 0.8 3 137
r 0.049763 40 0 cbr 1024 ------- 0 13.0 0.12 2 115
h 0.04985 35 40 cbr 1024 ------- 0 35.0 0.34 3 138
+ 0.049851 35 40 cbr 1024 ------- 0 35.0 0.34 3 138
h 0.050413 32 40 cbr 1024 ------- 0 32.0 0.31 3 139
+ 0.050414 32 40 cbr 1024 ------- 0 32.0 0.31 3 139
r 0.050624 40 0 cbr 1024 ------- 0 9.0 0.8 3 137
h 0.050784 17 40 cbr 1024 ------- 0 17.0 0.16 3 140
+ 0.050785 17 40 cbr 1024 ------- 0 17.0 0.16 3 140
h 0.051032 20 40 cbr 1024 ------- 0 20.0 0.19 3 141
+ 0.051033 20 40 cbr 1024 ------- 0 20.0 0.19 3 141
h 0.051143 2 40 cbr 1024 ------- 0 2.0 0.1 3 142
+ 0.051144 2 40 cbr 1024 ------- 0 2.0 0.1 3 142
- 0.051144 2 40 cbr 1024 ------- 0 2.0 0.1 3 142
h 0.051366 39 40 cbr 1024 ------- 0 39.0 0.38 4 143
+ 0.051367 39 40 cbr 1024 ------- 0 39.0 0.38 4 143
r 0.051468 40 0 cbr 1024 ------- 0 36.0 0.35 2 111
h 0.051548 31 40 cbr 1024 ------- 0 31.0 0.30 3 144
+ 0.051549 31 40 cbr 1024 ------- 0 31.0 0.30 3 144
- 0.051549 31 40 cbr 1024 ------- 0 31.0 0.30 3 144
h 0.051948 16 40 cbr 1024 ------- 0 16.0 0.15 4 145
+ 0.051949 16 40 cbr 1024 ------- 0 16.0 0.15 4 145
r 0.052384 40 0 cbr 1024 ------- 0 31.0 0.30 3 144
h 0.052526 25 40 cbr 1024 ------- 0 25.0 0.24 3 146
+ 0.052527 25 40 cbr 1024 ------- 0 25.0 0.24 3 146
h 0.053224 22 40 cbr 1024 ------- 0 22.0 0.21 4 147
+ 0.053225 22 40 cbr 1024 ------- 0 22.0 0.21 4 147
h 0.05343 10 40 cbr 1024 ------- 0 10.0 0.9 3 148
+ 0.053431 10 40 cbr 1024 ------- 0 10.0 0.9 3 148
- 0.053431 10 40 cbr 1024 ------- 0 10.0 0.9 3 148
r 0.053552 40 0 cbr 1024 ------- 0 2.0 0.1 3 142
h 0.053837 36 40 cbr 1024 ------- 0 36.0 0.35 3 149
+ 0.053838 36 40 cbr 1024 ------- 0 36.0 0.35 3 149
- 0.053838 36 40 cbr 1024 ------- 0 36.0 0.35 3 149
r 0.054396 40 0 cbr 1024 ------- 0 10.0 0.9 3 148
r 0.055308 40 0 cbr 1024 ------- 0 36.0 0.35 3 149
h 0.05534 26 40 cbr 1024 ------- 0 26.0 0.25 3 150
+ 0.05534 26 40 cbr 1024 ------- 0 26.0 0.25 3 150
h 0.055759 15 40 cbr 1024 ------- 0 15.0 0.14 3 151
+ 0.055759 15 40 cbr 1024 ------- 0 15.0 0.14 3 151
- 0.055759 15 40 cbr 1024 ------- 0 15.0 0.14 3 151
h 0.055865 23 40 cbr 1024 ------- 0 23.0 0.22 3 152
+ 0.055866 23 40 cbr 1024 ------- 0 23.0 0.22 3 152
- 0.055866 23 40 cbr 1024 ------- 0 23.0 0.22 3 152
r 0.056152 40 0 cbr 1024 ------- 0 38.0 0.37 2 95
- 0.056157 38 40 cbr 1024 ------- 0 38.0 0.37 3 126
h 0.056384 4 40 cbr 1024 ------- 0 4.0 0.3 4 153
+ 0.056385 4 40 cbr 1024 ------- 0 4.0 0.3 4 153
h 0.05657 33 40 cbr 1024 ------- 0 33.0 0.32 3 154
+ 0.056571 33 40 cbr 1024 ------- 0 33.0 0.32 3 154
r 0.057179 40 0 cbr 1024 ------- 0 15.0 0.14 3 151
h 0.057281 34 40 cbr 1024 ------- 0 34.0 0.33 3 155
+ 0.057282 34 40 cbr 1024 ------- 0 34.0 0.33 3 155
r 0.058282 40 0 cbr 1024 ------- 0 37.0 0.36 0 30
- 0.058287 37 40 cbr 1024 ------- 0 37.0 0.36 1 56
h 0.058756 18 40 cbr 1024 ------- 0 18.0 0.17 4 156
+ 0.058757 18 40 cbr 1024 ------- 0 18.0 0.17 4 156
h 0.058772 28 40 cbr 1024 ------- 0 28.0 0.27 4 157
+ 0.058773 28 40 cbr 1024 ------- 0 28.0 0.27 4 157
- 0.058773 28 40 cbr 1024 ------- 0 28.0 0.27 4 157
h 0.058848 5 40 cbr 1024 ------- 0 5.0 0.4 4 158
+ 0.058849 5 40 cbr 1024 ------- 0 5.0 0.4 4 158
- 0.058849 5 40 cbr 1024 ------- 0 5.0 0.4 4 158
r 0.059143 40 0 cbr 1024 ------- 0 37.0 0.36 1 56
- 0.059147 37 40 cbr 1024 ------- 0 37.0 0.36 2 83
h 0.059996 12 40 cbr 1024 ------- 0 12.0 0.11 3 159
+ 0.059997 12 40 cbr 1024 ------- 0 12.0 0.11 3 159
r 0.060016 40 0 cbr 1024 ------- 0 37.0 0.36 2 83
- 0.060021 37 40 cbr 1024 ------- 0 37.0 0.36 3 127
h 0.060325 38 40 cbr 1024 ------- 0 38.0 0.37 4 160
+ 0.060326 38 40 cbr 1024 ------- 0 38.0 0.37 4 160
h 0.060645 30 40 cbr 1024 ------- 0 30.0 0.29 3 161
+ 0.060646 30 40 cbr 1024 ------- 0 30.0 0.29 3 161
r 0.060928 40 0 cbr 1024 ------- 0 37.0 0.36 3 127
h 0.061023 3 40 cbr 1024 ------- 0 3.0 0.2 4 162
+ 0.061024 3 40 cbr 1024 ------- 0 3.0 0.2 4 162
h 0.061976 17 40 cbr 1024 ------- 0 17.0 0.16 4 163
+ 0.061977 17 40 cbr 1024 ------- 0 17.0 0.16 4 163
r 0.062079 40 0 cbr 1024 ------- 0 6.0 0.5 0 35
- 0.062084 6 40 cbr 1024 ------- 0 6.0 0.5 1 81
h 0.062129 8 40 cbr 1024 ------- 0 8.0 0.7 4 164
+ 0.06213 8 40 cbr 1024 ------- 0 8.0 0.7 4 164
h 0.062234 11 40 cbr 1024 ------- 0 11.0 0.10 4 165
+ 0.062235 11 40 cbr 1024 ------- 0 11.0 0.10 4 165
- 0.062235 11 40 cbr 1024 ------- 0 11.0 0.10 4 165
h 0.06233 24 40 cbr 1024 ------- 0 24.0 0.23 4 166
+ 0.062331 24 40 cbr 1024 ------- 0 24.0 0.23 4 166
r 0.062972 40 0 cbr 1024 ------- 0 38.0 0.37 3 126
- 0.062977 38 40 cbr 1024 ------- 0 38.0 0.37 4 160
h 0.063583 21 40 cbr 1024 ------- 0 21.0 0.20 5 167
+ 0.063584 21 40 cbr 1024 ------- 0 21.0 0.20 5 167
r 0.063931 40 0 cbr 1024 ------- 0 6.0 0.5 1 81
- 0.063936 6 40 cbr 1024 ------- 0 6.0 0.5 2 125
h 0.063993 7 40 cbr 1024 ------- 0 7.0 0.6 3 168
+ 0.063994 7 40 cbr 1024 ------- 0 7.0 0.6 3 168
h 0.064222 1 40 cbr 1024 ------- 0 1.0 0.0 4 169
+ 0.064223 1 40 cbr 1024 ------- 0 1.0 0.0 4 169
- 0.064223 1 40 cbr 1024 ------- 0 1.0 0.0 4 169
h 0.064423 13 40 cbr 1024 ------- 0 13.0 0.12 3 170
+ 0.064424 13 40 cbr 1024 ------- 0 13.0 0.12 3 170
- 0.064424 13 40 cbr 1024 ------- 0 13.0 0.12 3 170
h 0.064816 26 40 cbr 1024 ------- 0 26.0 0.25 4 171
+ 0.064817 26 40 cbr 1024 ------- 0 26.0 0.25 4 171
r 0.064942 40 0 cbr 1024 ------- 0 11.0 0.10 4 165
h 0.065054 35 40 cbr 1024 ------- 0 35.0 0.34 4 172
+ 0.065055 35 40 cbr 1024 ------- 0 35.0 0.34 4 172
h 0.065118 6 40 cbr 1024 ------- 0 6.0 0.5 3 173
+ 0.065119 6 40 cbr 1024 ------- 0 6.0 0.5 3 173
h 0.065374 14 40 cbr 1024 ------- 0 14.0 0.13 4 174
+ 0.065375 14 40 cbr 1024 ------- 0 14.0 0.13 4 174
h 0.06586 22 40 cbr 1024 ------- 0 22.0 0.21 5 175
+ 0.065861 22 40 cbr 1024 ------- 0 22.0 0.21 5 175
r 0.06599 40 0 cbr 1024 ------- 0 1.0 0.0 4 169
r 0.067107 40 0 cbr 1024 ------- 0 13.0 0.12 3 170
h 0.067217 29 40 cbr 1024 ------- 0 29.0 0.28 4 176
+ 0.067218 29 40 cbr 1024 ------- 0 29.0 0.28 4 176
h 0.067249 23 40 cbr 1024 ------- 0 23.0 0.22 4 177
+ 0.06725 23 40 cbr 1024 ------- 0 23.0 0.22 4 177
h 0.06772 31 40 cbr 1024 ------- 0 31.0 0.30 4 178
+ 0.067721 31 40 cbr 1024 ------- 0 31.0 0.30 4 178
- 0.067721 31 40 cbr 1024 ------- 0 31.0 0.30 4 178
r 0.068029 40 0 cbr 1024 ------- 0 16.0 0.15 0 7
- 0.068034 16 40 cbr 1024 ------- 0 16.0 0.15 1 46
h 0.068834 4 40 cbr 1024 ------- 0 4.0 0.3 5 179
+ 0.068835 4 40 cbr 1024 ------- 0 4.0 0.3 5 179
r 0.06889 40 0 cbr 1024 ------- 0 16.0 0.15 1 46
- 0.068895 16 40 cbr 1024 ------- 0 16.0 0.15 2 67
h 0.069251 15 40 cbr 1024 ------- 0 15.0 0.14 4 180
+ 0.069252 15 40 cbr 1024 ------- 0 15.0 0.14 4 180
- 0.069252 15 40 cbr 1024 ------- 0 15.0 0.14 4 180
h 0.069284 25 40 cbr 1024 ------- 0 25.0 0.24 4 181
+ 0.069285 25 40 cbr 1024 ------- 0 25.0 0.24 4 181
h 0.069613 32 40 cbr 1024 ------- 0 32.0 0.31 4 182
+ 0.069614 32 40 cbr 1024 ------- 0 32.0 0.31 4 182
r 0.069917 40 0 cbr 1024 ------- 0 16.0 0.15 2 67
- 0.069922 16 40 cbr 1024 ------- 0 16.0 0.15 3 113
h 0.070043 3 40 cbr 1024 ------- 0 3.0 0.2 5 183
+ 0.070044 3 40 cbr 1024 ------- 0 3.0 0.2 5 183
h 0.070135 27 40 cbr 1024 ------- 0 27.0 0.26 4 184
+ 0.070136 27 40 cbr 1024 ------- 0 27.0 0.26 4 184
h 0.070426 18 40 cbr 1024 ------- 0 18.0 0.17 5 185
+ 0.070427 18 40 cbr 1024 ------- 0 18.0 0.17 5 185
h 0.070581 37 40 cbr 1024 ------- 0 37.0 0.36 4 186
+ 0.070582 37 40 cbr 1024 ------- 0 37.0 0.36 4 186
- 0.070582 37 40 cbr 1024 ------- 0 37.0 0.36 4 186
r 0.070778 40 0 cbr 1024 ------- 0 16.0 0.15 3 113
- 0.070783 16 40 cbr 1024 ------- 0 16.0 0.15 4 145
h 0.070832 5 40 cbr 1024 ------- 0 5.0 0.4 5 187
+ 0.070833 5 40 cbr 1024 ------- 0 5.0 0.4 5 187
h 0.071141 9 40 cbr 1024 ------- 0 9.0 0.8 4 188
+ 0.071141 9 40 cbr 1024 ------- 0 9.0 0.8 4 188
- 0.071141 9 40 cbr 1024 ------- 0 9.0 0.8 4 188
h 0.071403 19 40 cbr 1024 ------- 0 19.0 0.18 4 189
+ 0.071404 19 40 cbr 1024 ------- 0 19.0 0.18 4 189
r 0.071703 40 0 cbr 1024 ------- 0 16.0 0.15 4 145
h 0.07248 21 40 cbr 1024 ------- 0 21.0 0.20 6 190
+ 0.072481 21 40 cbr 1024 ------- 0 21.0 0.20 6 190
r 0.072563 40 0 cbr 1024 ------- 0 9.0 0.8 4 188
h 0.072951 2 40 cbr 1024 ------- 0 2.0 0.1 4 191
+ 0.072952 2 40 cbr 1024 ------- 0 2.0 0.1 4 191
- 0.072952 2 40 cbr 1024 ------- 0 2.0 0.1 4 191
h 0.073117 36 40 cbr 1024 ------- 0 36.0 0.35 4 192
+ 0.073118 36 40 cbr 1024 ------- 0 36.0 0.35 4 192
- 0.073118 36 40 cbr 1024 ------- 0 36.0 0.35 4 192
h 0.073676 38 40 cbr 1024 ------- 0 38.0 0.37 5 193
+ 0.073677 38 40 cbr 1024 ------- 0 38.0 0.37 5 193
r 0.073787 40 0 cbr 1024 ------- 0 2.0 0.1 4 191
h 0.073836 16 40 cbr 1024 ------- 0 16.0 0.15 5 194
+ 0.073837 16 40 cbr 1024 ------- 0 16.0 0.15 5 194
- 0.073837 16 40 cbr 1024 ------- 0 16.0 0.15 5 194
h 0.074527 20 40 cbr 1024 ------- 0 20.0 0.19 4 195
+ 0.074528 20 40 cbr 1024 ------- 0 20.0 0.19 4 195
r 0.074665 40 0 cbr 1024 ------- 0 36.0 0.35 4 192
h 0.074675 8 40 cbr 1024 ------- 0 8.0 0.7 5 196
+ 0.074676 8 40 cbr 1024 ------- 0 8.0 0.7 5 196
h 0.074676 12 40 cbr 1024 ------- 0 12.0 0.11 4 197
+ 0.074677 12 40 cbr 1024 ------- 0 12.0 0.11 4 197
h 0.075016 33 40 cbr 1024 ------- 0 33.0 0.32 4 198
+ 0.075017 33 40 cbr 1024 ------- 0 33.0 0.32 4 198
r 0.075525 40 0 cbr 1024 ------- 0 16.0 0.15 5 194
h 0.075659 39 40 cbr 1024 ------- 0 39.0 0.38 5 199
+ 0.07566 39 40 cbr 1024 ------- 0 39.0 0.38 5 199
h 0.076066 29 40 cbr 1024 ------- 0 29.0 0.28 5 200
+ 0.076067 29 40 cbr 1024 ------- 0 29.0 0.28 5 200
h 0.076417 28 40 cbr 1024 ------- 0 28.0 0.27 5 201
+ 0.076418 28 40 cbr 1024 ------- 0 28.0 0.27 5 201
h 0.076497 14 40 cbr 1024 ------- 0 14.0 0.13 5 202
+ 0.076498 14 40 cbr 1024 ------- 0 14.0 0.13 5 202