+ 0.5 0 3 tcp 1000 ------- 0 0.0 3.0 0 0
- 0.5 0 3 tcp 1000 ------- 0 0.0 3.0 0 0
+ 0.5 0 3 tcp 1040 ------- 0 0.0 3.0 1 1
+ 0.5 0 3 tcp 1040 ------- 0 0.0 3.0 2 2
+ 0.5 0 3 tcp 1040 ------- 0 0.0 3.0 3 3
+ 0.5 0 3 tcp 1040 ------- 0 0.0 3.0 4 4
+ 0.5 0 3 tcp 1040 ------- 0 0.0 3.0 5 5
+ 0.5 0 3 tcp 1040 ------- 0 0.0 3.0 6 6
+ 0.5 1 2 tcp 1000 ------- 1 1.0 2.0 0 7
- 0.5 1 2 tcp 1000 ------- 1 1.0 2.0 0 7
- 0.504 0 3 tcp 1040 ------- 0 0.0 3.0 1 1
- 0.50816 0 3 tcp 1040 ------- 0 0.0 3.0 2 2
- 0.51232 0 3 tcp 1040 ------- 0 0.0 3.0 3 3
- 0.51648 0 3 tcp 1040 ------- 0 0.0 3.0 4 4
- 0.52064 0 3 tcp 1040 ------- 0 0.0 3.0 5 5
- 0.5248 0 3 tcp 1040 ------- 0 0.0 3.0 6 6
r 0.554 0 3 tcp 1000 ------- 0 0.0 3.0 0 0
+ 0.554 3 0 ack 40 ------- 0 3.0 0.0 0 8
- 0.554 3 0 ack 40 ------- 0 3.0 0.0 0 8
r 0.554 1 2 tcp 1000 ------- 1 1.0 2.0 0 7
+ 0.554 2 1 ack 40 ------- 1 2.0 1.0 0 9
- 0.554 2 1 ack 40 ------- 1 2.0 1.0 0 9
r 0.55816 0 3 tcp 1040 ------- 0 0.0 3.0 1 1
+ 0.55816 3 0 ack 40 ------- 0 3.0 0.0 1 10
- 0.55816 3 0 ack 40 ------- 0 3.0 0.0 1 10
r 0.56232 0 3 tcp 1040 ------- 0 0.0 3.0 2 2
+ 0.56232 3 0 ack 40 ------- 0 3.0 0.0 2 11
- 0.56232 3 0 ack 40 ------- 0 3.0 0.0 2 11
r 0.56648 0 3 tcp 1040 ------- 0 0.0 3.0 3 3
+ 0.56648 3 0 ack 40 ------- 0 3.0 0.0 3 12
- 0.56648 3 0 ack 40 ------- 0 3.0 0.0 3 12
r 0.57064 0 3 tcp 1040 ------- 0 0.0 3.0 4 4
+ 0.57064 3 0 ack 40 ------- 0 3.0 0.0 4 13
- 0.57064 3 0 ack 40 ------- 0 3.0 0.0 4 13
r 0.5748 0 3 tcp 1040 ------- 0 0.0 3.0 5 5
+ 0.5748 3 0 ack 40 ------- 0 3.0 0.0 5 14
- 0.5748 3 0 ack 40 ------- 0 3.0 0.0 5 14
r 0.57896 0 3 tcp 1040 ------- 0 0.0 3.0 6 6
+ 0.57896 3 0 ack 40 ------- 0 3.0 0.0 6 15
- 0.57896 3 0 ack 40 ------- 0 3.0 0.0 6 15
r 0.60416 3 0 ack 40 ------- 0 3.0 0.0 0 8
+ 0.60416 0 3 tcp 1040 ------- 0 0.0 3.0 7 16
- 0.60416 0 3 tcp 1040 ------- 0 0.0 3.0 7 16
r 0.60416 2 1 ack 40 ------- 1 2.0 1.0 0 9
+ 0.60416 1 2 tcp 1040 ------- 1 1.0 2.0 1 17
- 0.60416 1 2 tcp 1040 ------- 1 1.0 2.0 1 17
r 0.60832 3 0 ack 40 ------- 0 3.0 0.0 1 10
+ 0.60832 0 3 tcp 1040 ------- 0 0.0 3.0 8 18
- 0.60832 0 3 tcp 1040 ------- 0 0.0 3.0 8 18
r 0.61248 3 0 ack 40 ------- 0 3.0 0.0 2 11
+ 0.61248 0 3 tcp 1040 ------- 0 0.0 3.0 9 19
- 0.61248 0 3 tcp 1040 ------- 0 0.0 3.0 9 19
r 0.61664 3 0 ack 40 ------- 0 3.0 0.0 3 12
+ 0.61664 0 3 tcp 1040 ------- 0 0.0 3.0 10 20
- 0.61664 0 3 tcp 1040 ------- 0 0.0 3.0 10 20
r 0.6208 3 0 ack 40 ------- 0 3.0 0.0 4 13
+ 0.6208 0 3 tcp 1040 ------- 0 0.0 3.0 11 21
- 0.6208 0 3 tcp 1040 ------- 0 0.0 3.0 11 21
r 0.62496 3 0 ack 40 ------- 0 3.0 0.0 5 14
+ 0.62496 0 3 tcp 1040 ------- 0 0.0 3.0 12 22
- 0.62496 0 3 tcp 1040 ------- 0 0.0 3.0 12 22
r 0.62912 3 0 ack 40 ------- 0 3.0 0.0 6 15
+ 0.62912 0 3 tcp 1040 ------- 0 0.0 3.0 13 23
- 0.62912 0 3 tcp 1040 ------- 0 0.0 3.0 13 23
r 0.65832 0 3 tcp 1040 ------- 0 0.0 3.0 7 16
+ 0.65832 3 0 ack 40 ------- 0 3.0 0.0 7 24
- 0.65832 3 0 ack 40 ------- 0 3.0 0.0 7 24
r 0.65832 1 2 tcp 1040 ------- 1 1.0 2.0 1 17
+ 0.65832 2 1 ack 40 ------- 1 2.0 1.0 1 25
- 0.65832 2 1 ack 40 ------- 1 2.0 1.0 1 25
r 0.66248 0 3 tcp 1040 ------- 0 0.0 3.0 8 18
+ 0.66248 3 0 ack 40 ------- 0 3.0 0.0 8 26
- 0.66248 3 0 ack 40 ------- 0 3.0 0.0 8 26
r 0.66664 0 3 tcp 1040 ------- 0 0.0 3.0 9 19
+ 0.66664 3 0 ack 40 ------- 0 3.0 0.0 9 27
- 0.66664 3 0 ack 40 ------- 0 3.0 0.0 9 27
r 0.6708 0 3 tcp 1040 ------- 0 0.0 3.0 10 20
+ 0.6708 3 0 ack 40 ------- 0 3.0 0.0 10 28
- 0.6708 3 0 ack 40 ------- 0 3.0 0.0 10 28
r 0.67496 0 3 tcp 1040 ------- 0 0.0 3.0 11 21
+ 0.67496 3 0 ack 40 ------- 0 3.0 0.0 11 29
- 0.67496 3 0 ack 40 ------- 0 3.0 0.0 11 29
r 0.67912 0 3 tcp 1040 ------- 0 0.0 3.0 12 22
+ 0.67912 3 0 ack 40 ------- 0 3.0 0.0 12 30
- 0.67912 3 0 ack 40 ------- 0 3.0 0.0 12 30
r 0.68328 0 3 tcp 1040 ------- 0 0.0 3.0 13 23
+ 0.68328 3 0 ack 40 ------- 0 3.0 0.0 13 31
- 0.68328 3 0 ack 40 ------- 0 3.0 0.0 13 31
r 0.70848 3 0 ack 40 ------- 0 3.0 0.0 7 24
+ 0.70848 0 3 tcp 1040 ------- 0 0.0 3.0 14 32
- 0.70848 0 3 tcp 1040 ------- 0 0.0 3.0 14 32
r 0.70848 2 1 ack 40 ------- 1 2.0 1.0 1 25
+ 0.70848 1 2 tcp 1040 ------- 1 1.0 2.0 2 33
- 0.70848 1 2 tcp 1040 ------- 1 1.0 2.0 2 33
r 0.71264 3 0 ack 40 ------- 0 3.0 0.0 8 26
+ 0.71264 0 3 tcp 1040 ------- 0 0.0 3.0 15 34
- 0.71264 0 3 tcp 1040 ------- 0 0.0 3.0 15 34
r 0.7168 3 0 ack 40 ------- 0 3.0 0.0 9 27
+ 0.7168 0 3 tcp 1040 ------- 0 0.0 3.0 16 35
- 0.7168 0 3 tcp 1040 ------- 0 0.0 3.0 16 35
r 0.72096 3 0 ack 40 ------- 0 3.0 0.0 10 28
+ 0.72096 0 3 tcp 1040 ------- 0 0.0 3.0 17 36
- 0.72096 0 3 tcp 1040 ------- 0 0.0 3.0 17 36
r 0.72512 3 0 ack 40 ------- 0 3.0 0.0 11 29
+ 0.72512 0 3 tcp 1040 ------- 0 0.0 3.0 18 37
- 0.72512 0 3 tcp 1040 ------- 0 0.0 3.0 18 37
r 0.72928 3 0 ack 40 ------- 0 3.0 0.0 12 30
+ 0.72928 0 3 tcp 1040 ------- 0 0.0 3.0 19 38
- 0.72928 0 3 tcp 1040 ------- 0 0.0 3.0 19 38
r 0.73344 3 0 ack 40 ------- 0 3.0 0.0 13 31
+ 0.73344 0 3 tcp 1040 ------- 0 0.0 3.0 20 39
- 0.73344 0 3 tcp 1040 ------- 0 0.0 3.0 20 39
r 0.76264 0 3 tcp 1040 ------- 0 0.0 3.0 14 32
+ 0.76264 3 0 ack 40 ------- 0 3.0 0.0 14 40
- 0.76264 3 0 ack 40 ------- 0 3.0 0.0 14 40
r 0.76264 1 2 tcp 1040 ------- 1 1.0 2.0 2 33
+ 0.76264 2 1 ack 40 ------- 1 2.0 1.0 2 41
- 0.76264 2 1 ack 40 ------- 1 2.0 1.0 2 41
r 0.7668 0 3 tcp 1040 ------- 0 0.0 3.0 15 34
+ 0.7668 3 0 ack 40 ------- 0 3.0 0.0 15 42
- 0.7668 3 0 ack 40 ------- 0 3.0 0.0 15 42
r 0.77096 0 3 tcp 1040 ------- 0 0.0 3.0 16 35
+ 0.77096 3 0 ack 40 ------- 0 3.0 0.0 16 43
- 0.77096 3 0 ack 40 ------- 0 3.0 0.0 16 43
r 0.77512 0 3 tcp 1040 ------- 0 0.0 3.0 17 36
+ 0.77512 3 0 ack 40 ------- 0 3.0 0.0 17 44
- 0.77512 3 0 ack 40 ------- 0 3.0 0.0 17 44
r 0.77928 0 3 tcp 1040 ------- 0 0.0 3.0 18 37
+ 0.77928 3 0 ack 40 ------- 0 3.0 0.0 18 45
- 0.77928 3 0 ack 40 ------- 0 3.0 0.0 18 45
r 0.78344 0 3 tcp 1040 ------- 0 0.0 3.0 19 38
+ 0.78344 3 0 ack 40 ------- 0 3.0 0.0 19 46
- 0.78344 3 0 ack 40 ------- 0 3.0 0.0 19 46
r 0.7876 0 3 tcp 1040 ------- 0 0.0 3.0 20 39
+ 0.7876 3 0 ack 40 ------- 0 3.0 0.0 20 47
- 0.7876 3 0 ack 40 ------- 0 3.0 0.0 20 47
r 0.8128 3 0 ack 40 ------- 0 3.0 0.0 14 40
+ 0.8128 0 3 tcp 1040 ------- 0 0.0 3.0 21 48
- 0.8128 0 3 tcp 1040 ------- 0 0.0 3.0 21 48
r 0.8128 2 1 ack 40 ------- 1 2.0 1.0 2 41
+ 0.8128 1 2 tcp 1040 ------- 1 1.0 2.0 3 49
- 0.8128 1 2 tcp 1040 ------- 1 1.0 2.0 3 49
r 0.81696 3 0 ack 40 ------- 0 3.0 0.0 15 42
+ 0.81696 0 3 tcp 1040 ------- 0 0.0 3.0 22 50
- 0.81696 0 3 tcp 1040 ------- 0 0.0 3.0 22 50
r 0.82112 3 0 ack 40 ------- 0 3.0 0.0 16 43
+ 0.82112 0 3 tcp 1040 ------- 0 0.0 3.0 23 51
- 0.82112 0 3 tcp 1040 ------- 0 0.0 3.0 23 51
r 0.82528 3 0 ack 40 ------- 0 3.0 0.0 17 44
+ 0.82528 0 3 tcp 1040 ------- 0 0.0 3.0 24 52
- 0.82528 0 3 tcp 1040 ------- 0 0.0 3.0 24 52
r 0.82944 3 0 ack 40 ------- 0 3.0 0.0 18 45
+ 0.82944 0 3 tcp 1040 ------- 0 0.0 3.0 25 53
- 0.82944 0 3 tcp 1040 ------- 0 0.0 3.0 25 53
r 0.8336 3 0 ack 40 ------- 0 3.0 0.0 19 46
+ 0.8336 0 3 tcp 1040 ------- 0 0.0 3.0 26 54
- 0.8336 0 3 tcp 1040 ------- 0 0.0 3.0 26 54
r 0.83776 3 0 ack 40 ------- 0 3.0 0.0 20 47
+ 0.83776 0 3 tcp 1040 ------- 0 0.0 3.0 27 55
- 0.83776 0 3 tcp 1040 ------- 0 0.0 3.0 27 55
r 0.86696 0 3 tcp 1040 ------- 0 0.0 3.0 21 48
+ 0.86696 3 0 ack 40 ------- 0 3.0 0.0 21 56
- 0.86696 3 0 ack 40 ------- 0 3.0 0.0 21 56
r 0.86696 1 2 tcp 1040 ------- 1 1.0 2.0 3 49
+ 0.86696 2 1 ack 40 ------- 1 2.0 1.0 3 57
- 0.86696 2 1 ack 40 ------- 1 2.0 1.0 3 57
r 0.87112 0 3 tcp 1040 ------- 0 0.0 3.0 22 50
+ 0.87112 3 0 ack 40 ------- 0 3.0 0.0 22 58
- 0.87112 3 0 ack 40 ------- 0 3.0 0.0 22 58
r 0.87528 0 3 tcp 1040 ------- 0 0.0 3.0 23 51
+ 0.87528 3 0 ack 40 ------- 0 3.0 0.0 23 59
- 0.87528 3 0 ack 40 ------- 0 3.0 0.0 23 59
r 0.87944 0 3 tcp 1040 ------- 0 0.0 3.0 24 52
+ 0.87944 3 0 ack 40 ------- 0 3.0 0.0 24 60
- 0.87944 3 0 ack 40 ------- 0 3.0 0.0 24 60
r 0.8836 0 3 tcp 1040 ------- 0 0.0 3.0 25 53
+ 0.8836 3 0 ack 40 ------- 0 3.0 0.0 25 61
- 0.8836 3 0 ack 40 ------- 0 3.0 0.0 25 61
r 0.88776 0 3 tcp 1040 ------- 0 0.0 3.0 26 54
+ 0.88776 3 0 ack 40 ------- 0 3.0 0.0 26 62
- 0.88776 3 0 ack 40 ------- 0 3.0 0.0 26 62
r 0.89192 0 3 tcp 1040 ------- 0 0.0 3.0 27 55
+ 0.89192 3 0 ack 40 ------- 0 3.0 0.0 27 63
- 0.89192 3 0 ack 40 ------- 0 3.0 0.0 27 63
r 0.91712 3 0 ack 40 ------- 0 3.0 0.0 21 56
+ 0.91712 0 3 tcp 1040 ------- 0 0.0 3.0 28 64
- 0.91712 0 3 tcp 1040 ------- 0 0.0 3.0 28 64
r 0.91712 2 1 ack 40 ------- 1 2.0 1.0 3 57
+ 0.91712 1 2 tcp 1040 ------- 1 1.0 2.0 4 65
- 0.91712 1 2 tcp 1040 ------- 1 1.0 2.0 4 65
r 0.92128 3 0 ack 40 ------- 0 3.0 0.0 22 58
+ 0.92128 0 3 tcp 1040 ------- 0 0.0 3.0 29 66
- 0.92128 0 3 tcp 1040 ------- 0 0.0 3.0 29 66
r 0.92544 3 0 ack 40 ------- 0 3.0 0.0 23 59
+ 0.92544 0 3 tcp 1040 ------- 0 0.0 3.0 30 67
- 0.92544 0 3 tcp 1040 ------- 0 0.0 3.0 30 67
r 0.9296 3 0 ack 40 ------- 0 3.0 0.0 24 60
+ 0.9296 0 3 tcp 1040 ------- 0 0.0 3.0 31 68
- 0.9296 0 3 tcp 1040 ------- 0 0.0 3.0 31 68
r 0.93376 3 0 ack 40 ------- 0 3.0 0.0 25 61
+ 0.93376 0 3 tcp 1040 ------- 0 0.0 3.0 32 69
- 0.93376 0 3 tcp 1040 ------- 0 0.0 3.0 32 69
r 0.93792 3 0 ack 40 ------- 0 3.0 0.0 26 62
+ 0.93792 0 3 tcp 1040 ------- 0 0.0 3.0 33 70
- 0.93792 0 3 tcp 1040 ------- 0 0.0 3.0 33 70
r 0.94208 3 0 ack 40 ------- 0 3.0 0.0 27 63
+ 0.94208 0 3 tcp 1040 ------- 0 0.0 3.0 34 71
- 0.94208 0 3 tcp 1040 ------- 0 0.0 3.0 34 71
r 0.97128 0 3 tcp 1040 ------- 0 0.0 3.0 28 64
+ 0.97128 3 0 ack 40 ------- 0 3.0 0.0 28 72
- 0.97128 3 0 ack 40 ------- 0 3.0 0.0 28 72
r 0.97128 1 2 tcp 1040 ------- 1 1.0 2.0 4 65
+ 0.97128 2 1 ack 40 ------- 1 2.0 1.0 4 73
- 0.97128 2 1 ack 40 ------- 1 2.0 1.0 4 73
r 0.97544 0 3 tcp 1040 ------- 0 0.0 3.0 29 66
+ 0.97544 3 0 ack 40 ------- 0 3.0 0.0 29 74
- 0.97544 3 0 ack 40 ------- 0 3.0 0.0 29 74
r 0.9796 0 3 tcp 1040 ------- 0 0.0 3.0 30 67
+ 0.9796 3 0 ack 40 ------- 0 3.0 0.0 30 75
- 0.9796 3 0 ack 40 ------- 0 3.0 0.0 30 75
r 0.98376 0 3 tcp 1040 ------- 0 0.0 3.0 31 68
+ 0.98376 3 0 ack 40 ------- 0 3.0 0.0 31 76
- 0.98376 3 0 ack 40 ------- 0 3.0 0.0 31 76
r 0.98792 0 3 tcp 1040 ------- 0 0.0 3.0 32 69
+ 0.98792 3 0 ack 40 ------- 0 3.0 0.0 32 77
- 0.98792 3 0 ack 40 ------- 0 3.0 0.0 32 77
r 0.99208 0 3 tcp 1040 ------- 0 0.0 3.0 33 70
+ 0.99208 3 0 ack 40 ------- 0 3.0 0.0 33 78
- 0.99208 3 0 ack 40 ------- 0 3.0 0.0 33 78
r 0.99624 0 3 tcp 1040 ------- 0 0.0 3.0 34 71
+ 0.99624 3 0 ack 40 ------- 0 3.0 0.0 34 79
- 0.99624 3 0 ack 40 ------- 0 3.0 0.0 34 79
r 1.02144 3 0 ack 40 ------- 0 3.0 0.0 28 72
+ 1.02144 0 3 tcp 1040 ------- 0 0.0 3.0 35 80
- 1.02144 0 3 tcp 1040 ------- 0 0.0 3.0 35 80
r 1.02144 2 1 ack 40 ------- 1 2.0 1.0 4 73
+ 1.02144 1 2 tcp 1040 ------- 1 1.0 2.0 5 81
- 1.02144 1 2 tcp 1040 ------- 1 1.0 2.0 5 81
r 1.0256 3 0 ack 40 ------- 0 3.0 0.0 29 74
+ 1.0256 0 3 tcp 1040 ------- 0 0.0 3.0 36 82
- 1.0256 0 3 tcp 1040 ------- 0 0.0 3.0 36 82
r 1.02976 3 0 ack 40 ------- 0 3.0 0.0 30 75
+ 1.02976 0 3 tcp 1040 ------- 0 0.0 3.0 37 83
- 1.02976 0 3 tcp 1040 ------- 0 0.0 3.0 37 83
r 1.03392 3 0 ack 40 ------- 0 3.0 0.0 31 76
+ 1.03392 0 3 tcp 1040 ------- 0 0.0 3.0 38 84
- 1.03392 0 3 tcp 1040 ------- 0 0.0 3.0 38 84
r 1.03808 3 0 ack 40 ------- 0 3.0 0.0 32 77
+ 1.03808 0 3 tcp 1040 ------- 0 0.0 3.0 39 85
- 1.03808 0 3 tcp 1040 ------- 0 0.0 3.0 39 85
r 1.04224 3 0 ack 40 ------- 0 3.0 0.0 33 78
+ 1.04224 0 3 tcp 1040 ------- 0 0.0 3.0 40 86
- 1.04224 0 3 tcp 1040 ------- 0 0.0 3.0 40 86
r 1.0464 3 0 ack 40 ------- 0 3.0 0.0 34 79
+ 1.0464 0 3 tcp 1040 ------- 0 0.0 3.0 41 87
- 1.0464 0 3 tcp 1040 ------- 0 0.0 3.0 41 87
r 1.0756 0 3 tcp 1040 ------- 0 0.0 3.0 35 80
+ 1.0756 3 0 ack 40 ------- 0 3.0 0.0 35 88
- 1.0756 3 0 ack 40 ------- 0 3.0 0.0 35 88
r 1.0756 1 2 tcp 1040 ------- 1 1.0 2.0 5 81
+ 1.0756 2 1 ack 40 ------- 1 2.0 1.0 5 89
- 1.0756 2 1 ack 40 ------- 1 2.0 1.0 5 89
r 1.07976 0 3 tcp 1040 ------- 0 0.0 3.0 36 82
+ 1.07976 3 0 ack 40 ------- 0 3.0 0.0 36 90
- 1.07976 3 0 ack 40 ------- 0 3.0 0.0 36 90
r 1.08392 0 3 tcp 1040 ------- 0 0.0 3.0 37 83
+ 1.08392 3 0 ack 40 ------- 0 3.0 0.0 37 91
- 1.08392 3 0 ack 40 ------- 0 3.0 0.0 37 91
r 1.08808 0 3 tcp 1040 ------- 0 0.0 3.0 38 84
+ 1.08808 3 0 ack 40 ------- 0 3.0 0.0 38 92
- 1.08808 3 0 ack 40 ------- 0 3.0 0.0 38 92
r 1.09224 0 3 tcp 1040 ------- 0 0.0 3.0 39 85
+ 1.09224 3 0 ack 40 ------- 0 3.0 0.0 39 93
- 1.09224 3 0 ack 40 ------- 0 3.0 0.0 39 93
r 1.0964 0 3 tcp 1040 ------- 0 0.0 3.0 40 86
+ 1.0964 3 0 ack 40 ------- 0 3.0 0.0 40 94
- 1.0964 3 0 ack 40 ------- 0 3.0 0.0 40 94
r 1.10056 0 3 tcp 1040 ------- 0 0.0 3.0 41 87
+ 1.10056 3 0 ack 40 ------- 0 3.0 0.0 41 95
- 1.10056 3 0 ack 40 ------- 0 3.0 0.0 41 95
r 1.12576 3 0 ack 40 ------- 0 3.0 0.0 35 88
+ 1.12576 0 3 tcp 1040 ------- 0 0.0 3.0 42 96
- 1.12576 0 3 tcp 1040 ------- 0 0.0 3.0 42 96
r 1.12576 2 1 ack 40 ------- 1 2.0 1.0 5 89
+ 1.12576 1 2 tcp 1040 ------- 1 1.0 2.0 6 97
- 1.12576 1 2 tcp 1040 ------- 1 1.0 2.0 6 97
r 1.12992 3 0 ack 40 ------- 0 3.0 0.0 36 90
+ 1.12992 0 3 tcp 1040 ------- 0 0.0 3.0 43 98
- 1.12992 0 3 tcp 1040 ------- 0 0.0 3.0 43 98
r 1.13408 3 0 ack 40 ------- 0 3.0 0.0 37 91
+ 1.13408 0 3 tcp 1040 ------- 0 0.0 3.0 44 99
- 1.13408 0 3 tcp 1040 ------- 0 0.0 3.0 44 99
r 1.13824 3 0 ack 40 ------- 0 3.0 0.0 38 92
+ 1.13824 0 3 tcp 1040 ------- 0 0.0 3.0 45 100
- 1.13824 0 3 tcp 1040 ------- 0 0.0 3.0 45 100
r 1.1424 3 0 ack 40 ------- 0 3.0 0.0 39 93
+ 1.1424 0 3 tcp 1040 ------- 0 0.0 3.0 46 101
- 1.1424 0 3 tcp 1040 ------- 0 0.0 3.0 46 101
r 1.14656 3 0 ack 40 ------- 0 3.0 0.0 40 94
+ 1.14656 0 3 tcp 1040 ------- 0 0.0 3.0 47 102
- 1.14656 0 3 tcp 1040 ------- 0 0.0 3.0 47 102
r 1.15072 3 0 ack 40 ------- 0 3.0 0.0 41 95
+ 1.15072 0 3 tcp 1040 ------- 0 0.0 3.0 48 103
- 1.15072 0 3 tcp 1040 ------- 0 0.0 3.0 48 103
r 1.17992 0 3 tcp 1040 ------- 0 0.0 3.0 42 96
+ 1.17992 3 0 ack 40 ------- 0 3.0 0.0 42 104
- 1.17992 3 0 ack 40 ------- 0 3.0 0.0 42 104
r 1.17992 1 2 tcp 1040 ------- 1 1.0 2.0 6 97
+ 1.17992 2 1 ack 40 ------- 1 2.0 1.0 6 105
- 1.17992 2 1 ack 40 ------- 1 2.0 1.0 6 105
r 1.18408 0 3 tcp 1040 ------- 0 0.0 3.0 43 98
+ 1.18408 3 0 ack 40 ------- 0 3.0 0.0 43 106
- 1.18408 3 0 ack 40 ------- 0 3.0 0.0 43 106
r 1.18824 0 3 tcp 1040 ------- 0 0.0 3.0 44 99
+ 1.18824 3 0 ack 40 ------- 0 3.0 0.0 44 107
- 1.18824 3 0 ack 40 ------- 0 3.0 0.0 44 107
r 1.1924 0 3 tcp 1040 ------- 0 0.0 3.0 45 100
+ 1.1924 3 0 ack 40 ------- 0 3.0 0.0 45 108
- 1.1924 3 0 ack 40 ------- 0 3.0 0.0 45 108
r 1.19656 0 3 tcp 1040 ------- 0 0.0 3.0 46 101
+ 1.19656 3 0 ack 40 ------- 0 3.0 0.0 46 109
- 1.19656 3 0 ack 40 ------- 0 3.0 0.0 46 109
r 1.20072 0 3 tcp 1040 ------- 0 0.0 3.0 47 102
+ 1.20072 3 0 ack 40 ------- 0 3.0 0.0 47 110
- 1.20072 3 0 ack 40 ------- 0 3.0 0.0 47 110
r 1.20488 0 3 tcp 1040 ------- 0 0.0 3.0 48 103
+ 1.20488 3 0 ack 40 ------- 0 3.0 0.0 48 111
- 1.20488 3 0 ack 40 ------- 0 3.0 0.0 48 111
r 1.23008 3 0 ack 40 ------- 0 3.0 0.0 42 104
+ 1.23008 0 3 tcp 1040 ------- 0 0.0 3.0 49 112
- 1.23008 0 3 tcp 1040 ------- 0 0.0 3.0 49 112
r 1.23008 2 1 ack 40 ------- 1 2.0 1.0 6 105
+ 1.23008 1 2 tcp 1040 ------- 1 1.0 2.0 7 113
- 1.23008 1 2 tcp 1040 ------- 1 1.0 2.0 7 113
r 1.23424 3 0 ack 40 ------- 0 3.0 0.0 43 106
r 1.2384 3 0 ack 40 ------- 0 3.0 0.0 44 107
r 1.24256 3 0 ack 40 ------- 0 3.0 0.0 45 108
r 1.24672 3 0 ack 40 ------- 0 3.0 0.0 46 109
r 1.25088 3 0 ack 40 ------- 0 3.0 0.0 47 110
r 1.25504 3 0 ack 40 ------- 0 3.0 0.0 48 111
r 1.28424 0 3 tcp 1040 ------- 0 0.0 3.0 49 112
+ 1.28424 3 0 ack 40 ------- 0 3.0 0.0 49 114
- 1.28424 3 0 ack 40 ------- 0 3.0 0.0 49 114
r 1.28424 1 2 tcp 1040 ------- 1 1.0 2.0 7 113
+ 1.28424 2 1 ack 40 ------- 1 2.0 1.0 7 115
- 1.28424 2 1 ack 40 ------- 1 2.0 1.0 7 115
r 1.3344 3 0 ack 40 ------- 0 3.0 0.0 49 114
r 1.3344 2 1 ack 40 ------- 1 2.0 1.0 7 115
+ 1.3344 1 2 tcp 1040 ------- 1 1.0 2.0 8 116
- 1.3344 1 2 tcp 1040 ------- 1 1.0 2.0 8 116
r 1.38856 1 2 tcp 1040 ------- 1 1.0 2.0 8 116
+ 1.38856 2 1 ack 40 ------- 1 2.0 1.0 8 117
- 1.38856 2 1 ack 40 ------- 1 2.0 1.0 8 117
r 1.43872 2 1 ack 40 ------- 1 2.0 1.0 8 117
+ 1.43872 1 2 tcp 1040 ------- 1 1.0 2.0 9 118
- 1.43872 1 2 tcp 1040 ------- 1 1.0 2.0 9 118
r 1.49288 1 2 tcp 1040 ------- 1 1.0 2.0 9 118
+ 1.49288 2 1 ack 40 ------- 1 2.0 1.0 9 119
- 1.49288 2 1 ack 40 ------- 1 2.0 1.0 9 119
r 1.54304 2 1 ack 40 ------- 1 2.0 1.0 9 119
+ 1.54304 1 2 tcp 1040 ------- 1 1.0 2.0 10 120
- 1.54304 1 2 tcp 1040 ------- 1 1.0 2.0 10 120
r 1.5972 1 2 tcp 1040 ------- 1 1.0 2.0 10 120
+ 1.5972 2 1 ack 40 ------- 1 2.0 1.0 10 121
- 1.5972 2 1 ack 40 ------- 1 2.0 1.0 10 121
r 1.64736 2 1 ack 40 ------- 1 2.0 1.0 10 121
+ 1.64736 1 2 tcp 1040 ------- 1 1.0 2.0 11 122
- 1.64736 1 2 tcp 1040 ------- 1 1.0 2.0 11 122
r 1.70152 1 2 tcp 1040 ------- 1 1.0 2.0 11 122
+ 1.70152 2 1 ack 40 ------- 1 2.0 1.0 11 123
- 1.70152 2 1 ack 40 ------- 1 2.0 1.0 11 123
r 1.75168 2 1 ack 40 ------- 1 2.0 1.0 11 123
+ 1.75168 1 2 tcp 1040 ------- 1 1.0 2.0 12 124
- 1.75168 1 2 tcp 1040 ------- 1 1.0 2.0 12 124
r 1.80584 1 2 tcp 1040 ------- 1 1.0 2.0 12 124
+ 1.80584 2 1 ack 40 ------- 1 2.0 1.0 12 125
- 1.80584 2 1 ack 40 ------- 1 2.0 1.0 12 125
r 1.856 2 1 ack 40 ------- 1 2.0 1.0 12 125
+ 1.856 1 2 tcp 1040 ------- 1 1.0 2.0 13 126
- 1.856 1 2 tcp 1040 ------- 1 1.0 2.0 13 126
r 1.91016 1 2 tcp 1040 ------- 1 1.0 2.0 13 126
+ 1.91016 2 1 ack 40 ------- 1 2.0 1.0 13 127
- 1.91016 2 1 ack 40 ------- 1 2.0 1.0 13 127
r 1.96032 2 1 ack 40 ------- 1 2.0 1.0 13 127
+ 1.96032 1 2 tcp 1040 ------- 1 1.0 2.0 14 128
- 1.96032 1 2 tcp 1040 ------- 1 1.0 2.0 14 128
r 2.01448 1 2 tcp 1040 ------- 1 1.0 2.0 14 128
+ 2.01448 2 1 ack 40 ------- 1 2.0 1.0 14 129
- 2.01448 2 1 ack 40 ------- 1 2.0 1.0 14 129
r 2.06464 2 1 ack 40 ------- 1 2.0 1.0 14 129
+ 2.06464 1 2 tcp 1040 ------- 1 1.0 2.0 15 130
- 2.06464 1 2 tcp 1040 ------- 1 1.0 2.0 15 130
r 2.1188 1 2 tcp 1040 ------- 1 1.0 2.0 15 130
+ 2.1188 2 1 ack 40 ------- 1 2.0 1.0 15 131
- 2.1188 2 1 ack 40 ------- 1 2.0 1.0 15 131
r 2.16896 2 1 ack 40 ------- 1 2.0 1.0 15 131
+ 2.16896 1 2 tcp 1040 ------- 1 1.0 2.0 16 132
- 2.16896 1 2 tcp 1040 ------- 1 1.0 2.0 16 132
r 2.22312 1 2 tcp 1040 ------- 1 1.0 2.0 16 132
+ 2.22312 2 1 ack 40 ------- 1 2.0 1.0 16 133
- 2.22312 2 1 ack 40 ------- 1 2.0 1.0 16 133
r 2.27328 2 1 ack 40 ------- 1 2.0 1.0 16 133
+ 2.27328 1 2 tcp 1040 ------- 1 1.0 2.0 17 134
- 2.27328 1 2 tcp 1040 ------- 1 1.0 2.0 17 134
r 2.32744 1 2 tcp 1040 ------- 1 1.0 2.0 17 134
+ 2.32744 2 1 ack 40 ------- 1 2.0 1.0 17 135
- 2.32744 2 1 ack 40 ------- 1 2.0 1.0 17 135
r 2.3776 2 1 ack 40 ------- 1 2.0 1.0 17 135
+ 2.3776 1 2 tcp 1040 ------- 1 1.0 2.0 18 136
- 2.3776 1 2 tcp 1040 ------- 1 1.0 2.0 18 136
r 2.43176 1 2 tcp 1040 ------- 1 1.0 2.0 18 136
+ 2.43176 2 1 ack 40 ------- 1 2.0 1.0 18 137
- 2.43176 2 1 ack 40 ------- 1 2.0 1.0 18 137
r 2.48192 2 1 ack 40 ------- 1 2.0 1.0 18 137
+ 2.48192 1 2 tcp 1040 ------- 1 1.0 2.0 19 138
- 2.48192 1 2 tcp 1040 ------- 1 1.0 2.0 19 138
r 2.53608 1 2 tcp 1040 ------- 1 1.0 2.0 19 138
+ 2.53608 2 1 ack 40 ------- 1 2.0 1.0 19 139
- 2.53608 2 1 ack 40 ------- 1 2.0 1.0 19 139
r 2.58624 2 1 ack 40 ------- 1 2.0 1.0 19 139
+ 2.58624 1 2 tcp 1040 ------- 1 1.0 2.0 20 140
- 2.58624 1 2 tcp 1040 ------- 1 1.0 2.0 20 140
r 2.6404 1 2 tcp 1040 ------- 1 1.0 2.0 20 140
+ 2.6404 2 1 ack 40 ------- 1 2.0 1.0 20 141
- 2.6404 2 1 ack 40 ------- 1 2.0 1.0 20 141
r 2.69056 2 1 ack 40 ------- 1 2.0 1.0 20 141
+ 2.69056 1 2 tcp 1040 ------- 1 1.0 2.0 21 142
- 2.69056 1 2 tcp 1040 ------- 1 1.0 2.0 21 142
r 2.74472 1 2 tcp 1040 ------- 1 1.0 2.0 21 142
+ 2.74472 2 1 ack 40 ------- 1 2.0 1.0 21 143
- 2.74472 2 1 ack 40 ------- 1 2.0 1.0 21 143
r 2.79488 2 1 ack 40 ------- 1 2.0 1.0 21 143
+ 2.79488 1 2 tcp 1040 ------- 1 1.0 2.0 22 144
- 2.79488 1 2 tcp 1040 ------- 1 1.0 2.0 22 144
r 2.84904 1 2 tcp 1040 ------- 1 1.0 2.0 22 144
+ 2.84904 2 1 ack 40 ------- 1 2.0 1.0 22 145
- 2.84904 2 1 ack 40 ------- 1 2.0 1.0 22 145
r 2.8992 2 1 ack 40 ------- 1 2.0 1.0 22 145
+ 2.8992 1 2 tcp 1040 ------- 1 1.0 2.0 23 146
- 2.8992 1 2 tcp 1040 ------- 1 1.0 2.0 23 146
r 2.95336 1 2 tcp 1040 ------- 1 1.0 2.0 23 146
+ 2.95336 2 1 ack 40 ------- 1 2.0 1.0 23 147
- 2.95336 2 1 ack 40 ------- 1 2.0 1.0 23 147
r 3.00352 2 1 ack 40 ------- 1 2.0 1.0 23 147
+ 3.00352 1 2 tcp 1040 ------- 1 1.0 2.0 24 148
- 3.00352 1 2 tcp 1040 ------- 1 1.0 2.0 24 148
r 3.05768 1 2 tcp 1040 ------- 1 1.0 2.0 24 148
+ 3.05768 2 1 ack 40 ------- 1 2.0 1.0 24 149
- 3.05768 2 1 ack 40 ------- 1 2.0 1.0 24 149
r 3.10784 2 1 ack 40 ------- 1 2.0 1.0 24 149
+ 3.10784 1 2 tcp 1040 ------- 1 1.0 2.0 25 150
- 3.10784 1 2 tcp 1040 ------- 1 1.0 2.0 25 150
r 3.162 1 2 tcp 1040 ------- 1 1.0 2.0 25 150
+ 3.162 2 1 ack 40 ------- 1 2.0 1.0 25 151
- 3.162 2 1 ack 40 ------- 1 2.0 1.0 25 151
r 3.21216 2 1 ack 40 ------- 1 2.0 1.0 25 151
+ 3.21216 1 2 tcp 1040 ------- 1 1.0 2.0 26 152
- 3.21216 1 2 tcp 1040 ------- 1 1.0 2.0 26 152
r 3.26632 1 2 tcp 1040 ------- 1 1.0 2.0 26 152
+ 3.26632 2 1 ack 40 ------- 1 2.0 1.0 26 153
- 3.26632 2 1 ack 40 ------- 1 2.0 1.0 26 153
r 3.31648 2 1 ack 40 ------- 1 2.0 1.0 26 153
+ 3.31648 1 2 tcp 1040 ------- 1 1.0 2.0 27 154
- 3.31648 1 2 tcp 1040 ------- 1 1.0 2.0 27 154
r 3.37064 1 2 tcp 1040 ------- 1 1.0 2.0 27 154
+ 3.37064 2 1 ack 40 ------- 1 2.0 1.0 27 155
- 3.37064 2 1 ack 40 ------- 1 2.0 1.0 27 155
r 3.4208 2 1 ack 40 ------- 1 2.0 1.0 27 155
+ 3.4208 1 2 tcp 1040 ------- 1 1.0 2.0 28 156
- 3.4208 1 2 tcp 1040 ------- 1 1.0 2.0 28 156
r 3.47496 1 2 tcp 1040 ------- 1 1.0 2.0 28 156
+ 3.47496 2 1 ack 40 ------- 1 2.0 1.0 28 157
- 3.47496 2 1 ack 40 ------- 1 2.0 1.0 28 157
r 3.52512 2 1 ack 40 ------- 1 2.0 1.0 28 157
+ 3.52512 1 2 tcp 1040 ------- 1 1.0 2.0 29 158
- 3.52512 1 2 tcp 1040 ------- 1 1.0 2.0 29 158
r 3.57928 1 2 tcp 1040 ------- 1 1.0 2.0 29 158
+ 3.57928 2 1 ack 40 ------- 1 2.0 1.0 29 159
- 3.57928 2 1 ack 40 ------- 1 2.0 1.0 29 159
r 3.62944 2 1 ack 40 ------- 1 2.0 1.0 29 159
+ 3.62944 1 2 tcp 1040 ------- 1 1.0 2.0 30 160
- 3.62944 1 2 tcp 1040 ------- 1 1.0 2.0 30 160
r 3.6836 1 2 tcp 1040 ------- 1 1.0 2.0 30 160
+ 3.6836 2 1 ack 40 ------- 1 2.0 1.0 30 161
- 3.6836 2 1 ack 40 ------- 1 2.0 1.0 30 161
r 3.73376 2 1 ack 40 ------- 1 2.0 1.0 30 161
+ 3.73376 1 2 tcp 1040 ------- 1 1.0 2.0 31 162
- 3.73376 1 2 tcp 1040 ------- 1 1.0 2.0 31 162
r 3.78792 1 2 tcp 1040 ------- 1 1.0 2.0 31 162
+ 3.78792 2 1 ack 40 ------- 1 2.0 1.0 31 163
- 3.78792 2 1 ack 40 ------- 1 2.0 1.0 31 163
r 3.83808 2 1 ack 40 ------- 1 2.0 1.0 31 163
+ 3.83808 1 2 tcp 1040 ------- 1 1.0 2.0 32 164
- 3.83808 1 2 tcp 1040 ------- 1 1.0 2.0 32 164
r 3.89224 1 2 tcp 1040 ------- 1 1.0 2.0 32 164
+ 3.89224 2 1 ack 40 ------- 1 2.0 1.0 32 165
- 3.89224 2 1 ack 40 ------- 1 2.0 1.0 32 165
r 3.9424 2 1 ack 40 ------- 1 2.0 1.0 32 165
+ 3.9424 1 2 tcp 1040 ------- 1 1.0 2.0 33 166
- 3.9424 1 2 tcp 1040 ------- 1 1.0 2.0 33 166
r 3.99656 1 2 tcp 1040 ------- 1 1.0 2.0 33 166
+ 3.99656 2 1 ack 40 ------- 1 2.0 1.0 33 167
- 3.99656 2 1 ack 40 ------- 1 2.0 1.0 33 167
r 4.04672 2 1 ack 40 ------- 1 2.0 1.0 33 167
+ 4.04672 1 2 tcp 1040 ------- 1 1.0 2.0 34 168
- 4.04672 1 2 tcp 1040 ------- 1 1.0 2.0 34 168
r 4.10088 1 2 tcp 1040 ------- 1 1.0 2.0 34 168
+ 4.10088 2 1 ack 40 ------- 1 2.0 1.0 34 169
- 4.10088 2 1 ack 40 ------- 1 2.0 1.0 34 169
r 4.15104 2 1 ack 40 ------- 1 2.0 1.0 34 169
+ 4.15104 1 2 tcp 1040 ------- 1 1.0 2.0 35 170
- 4.15104 1 2 tcp 1040 ------- 1 1.0 2.0 35 170
r 4.2052 1 2 tcp 1040 ------- 1 1.0 2.0 35 170
+ 4.2052 2 1 ack 40 ------- 1 2.0 1.0 35 171
- 4.2052 2 1 ack 40 ------- 1 2.0 1.0 35 171
r 4.25536 2 1 ack 40 ------- 1 2.0 1.0 35 171
+ 4.25536 1 2 tcp 1040 ------- 1 1.0 2.0 36 172
- 4.25536 1 2 tcp 1040 ------- 1 1.0 2.0 36 172
r 4.30952 1 2 tcp 1040 ------- 1 1.0 2.0 36 172
+ 4.30952 2 1 ack 40 ------- 1 2.0 1.0 36 173
- 4.30952 2 1 ack 40 ------- 1 2.0 1.0 36 173
r 4.35968 2 1 ack 40 ------- 1 2.0 1.0 36 173
+ 4.35968 1 2 tcp 1040 ------- 1 1.0 2.0 37 174
- 4.35968 1 2 tcp 1040 ------- 1 1.0 2.0 37 174
r 4.41384 1 2 tcp 1040 ------- 1 1.0 2.0 37 174
+ 4.41384 2 1 ack 40 ------- 1 2.0 1.0 37 175
- 4.41384 2 1 ack 40 ------- 1 2.0 1.0 37 175
r 4.464 2 1 ack 40 ------- 1 2.0 1.0 37 175
+ 4.464 1 2 tcp 1040 ------- 1 1.0 2.0 38 176
- 4.464 1 2 tcp 1040 ------- 1 1.0 2.0 38 176
r 4.51816 1 2 tcp 1040 ------- 1 1.0 2.0 38 176
+ 4.51816 2 1 ack 40 ------- 1 2.0 1.0 38 177
- 4.51816 2 1 ack 40 ------- 1 2.0 1.0 38 177
r 4.56832 2 1 ack 40 ------- 1 2.0 1.0 38 177
+ 4.56832 1 2 tcp 1040 ------- 1 1.0 2.0 39 178
- 4.56832 1 2 tcp 1040 ------- 1 1.0 2.0 39 178
r 4.62248 1 2 tcp 1040 ------- 1 1.0 2.0 39 178
+ 4.62248 2 1 ack 40 ------- 1 2.0 1.0 39 179
- 4.62248 2 1 ack 40 ------- 1 2.0 1.0 39 179
r 4.67264 2 1 ack 40 ------- 1 2.0 1.0 39 179
+ 4.67264 1 2 tcp 1040 ------- 1 1.0 2.0 40 180
- 4.67264 1 2 tcp 1040 ------- 1 1.0 2.0 40 180
r 4.7268 1 2 tcp 1040 ------- 1 1.0 2.0 40 180
+ 4.7268 2 1 ack 40 ------- 1 2.0 1.0 40 181
- 4.7268 2 1 ack 40 ------- 1 2.0 1.0 40 181
r 4.77696 2 1 ack 40 ------- 1 2.0 1.0 40 181
+ 4.77696 1 2 tcp 1040 ------- 1 1.0 2.0 41 182
- 4.77696 1 2 tcp 1040 ------- 1 1.0 2.0 41 182
r 4.83112 1 2 tcp 1040 ------- 1 1.0 2.0 41 182
+ 4.83112 2 1 ack 40 ------- 1 2.0 1.0 41 183
- 4.83112 2 1 ack 40 ------- 1 2.0 1.0 41 183
r 4.88128 2 1 ack 40 ------- 1 2.0 1.0 41 183
+ 4.88128 1 2 tcp 1040 ------- 1 1.0 2.0 42 184
- 4.88128 1 2 tcp 1040 ------- 1 1.0 2.0 42 184
r 4.93544 1 2 tcp 1040 ------- 1 1.0 2.0 42 184
+ 4.93544 2 1 ack 40 ------- 1 2.0 1.0 42 185
- 4.93544 2 1 ack 40 ------- 1 2.0 1.0 42 185
r 4.9856 2 1 ack 40 ------- 1 2.0 1.0 42 185
+ 4.9856 1 2 tcp 1040 ------- 1 1.0 2.0 43 186
- 4.9856 1 2 tcp 1040 ------- 1 1.0 2.0 43 186
r 5.03976 1 2 tcp 1040 ------- 1 1.0 2.0 43 186
+ 5.03976 2 1 ack 40 ------- 1 2.0 1.0 43 187
- 5.03976 2 1 ack 40 ------- 1 2.0 1.0 43 187
r 5.08992 2 1 ack 40 ------- 1 2.0 1.0 43 187
+ 5.08992 1 2 tcp 1040 ------- 1 1.0 2.0 44 188
- 5.08992 1 2 tcp 1040 ------- 1 1.0 2.0 44 188
r 5.14408 1 2 tcp 1040 ------- 1 1.0 2.0 44 188
+ 5.14408 2 1 ack 40 ------- 1 2.0 1.0 44 189
- 5.14408 2 1 ack 40 ------- 1 2.0 1.0 44 189
r 5.19424 2 1 ack 40 ------- 1 2.0 1.0 44 189
+ 5.19424 1 2 tcp 1040 ------- 1 1.0 2.0 45 190
- 5.19424 1 2 tcp 1040 ------- 1 1.0 2.0 45 190
r 5.2484 1 2 tcp 1040 ------- 1 1.0 2.0 45 190
+ 5.2484 2 1 ack 40 ------- 1 2.0 1.0 45 191
- 5.2484 2 1 ack 40 ------- 1 2.0 1.0 45 191
r 5.29856 2 1 ack 40 ------- 1 2.0 1.0 45 191
+ 5.29856 1 2 tcp 1040 ------- 1 1.0 2.0 46 192
- 5.29856 1 2 tcp 1040 ------- 1 1.0 2.0 46 192
r 5.35272 1 2 tcp 1040 ------- 1 1.0 2.0 46 192
+ 5.35272 2 1 ack 40 ------- 1 2.0 1.0 46 193
- 5.35272 2 1 ack 40 ------- 1 2.0 1.0 46 193
r 5.40288 2 1 ack 40 ------- 1 2.0 1.0 46 193
+ 5.40288 1 2 tcp 1040 ------- 1 1.0 2.0 47 194
- 5.40288 1 2 tcp 1040 ------- 1 1.0 2.0 47 194
r 5.45704 1 2 tcp 1040 ------- 1 1.0 2.0 47 194
+ 5.45704 2 1 ack 40 ------- 1 2.0 1.0 47 195
- 5.45704 2 1 ack 40 ------- 1 2.0 1.0 47 195
r 5.5072 2 1 ack 40 ------- 1 2.0 1.0 47 195
+ 5.5072 1 2 tcp 1040 ------- 1 1.0 2.0 48 196
- 5.5072 1 2 tcp 1040 ------- 1 1.0 2.0 48 196
r 5.56136 1 2 tcp 1040 ------- 1 1.0 2.0 48 196
+ 5.56136 2 1 ack 40 ------- 1 2.0 1.0 48 197
- 5.56136 2 1 ack 40 ------- 1 2.0 1.0 48 197
r 5.61152 2 1 ack 40 ------- 1 2.0 1.0 48 197
+ 5.61152 1 2 tcp 1040 ------- 1 1.0 2.0 49 198
- 5.61152 1 2 tcp 1040 ------- 1 1.0 2.0 49 198
r 5.66568 1 2 tcp 1040 ------- 1 1.0 2.0 49 198
+ 5.66568 2 1 ack 40 ------- 1 2.0 1.0 49 199
- 5.66568 2 1 ack 40 ------- 1 2.0 1.0 49 199
r 5.71584 2 1 ack 40 ------- 1 2.0 1.0 49 199
