+ 0.5 0 3 tcp 1000 ------- 0 0.0 3.0 0 0
- 0.5 0 3 tcp 1000 ------- 0 0.0 3.0 0 0
+ 0.5 0 3 tcp 1040 ------- 0 0.0 3.0 1 1
+ 0.5 0 3 tcp 1040 ------- 0 0.0 3.0 2 2
+ 0.5 0 3 tcp 1040 ------- 0 0.0 3.0 3 3
+ 0.5 0 3 tcp 1040 ------- 0 0.0 3.0 4 4
+ 0.5 0 3 tcp 1040 ------- 0 0.0 3.0 5 5
+ 0.5 0 3 tcp 1040 ------- 0 0.0 3.0 6 6
+ 0.5 0 3 tcp 1040 ------- 0 0.0 3.0 7 7
+ 0.5 0 3 tcp 1040 ------- 0 0.0 3.0 8 8
+ 0.5 0 3 tcp 1040 ------- 0 0.0 3.0 9 9
+ 0.5 0 3 tcp 1040 ------- 0 0.0 3.0 10 10
+ 0.5 0 3 tcp 1040 ------- 0 0.0 3.0 11 11
+ 0.5 0 3 tcp 1040 ------- 0 0.0 3.0 12 12
+ 0.5 0 3 tcp 1040 ------- 0 0.0 3.0 13 13
+ 0.5 0 3 tcp 1040 ------- 0 0.0 3.0 14 14
+ 0.5 0 3 tcp 1040 ------- 0 0.0 3.0 15 15
+ 0.5 0 3 tcp 1040 ------- 0 0.0 3.0 16 16
+ 0.5 0 3 tcp 1040 ------- 0 0.0 3.0 17 17
+ 0.5 0 3 tcp 1040 ------- 0 0.0 3.0 18 18
+ 0.5 0 3 tcp 1040 ------- 0 0.0 3.0 19 19
+ 0.5 0 3 tcp 1040 ------- 0 0.0 3.0 20 20
+ 0.5 0 3 tcp 1040 ------- 0 0.0 3.0 21 21
+ 0.5 0 3 tcp 1040 ------- 0 0.0 3.0 22 22
+ 0.5 0 3 tcp 1040 ------- 0 0.0 3.0 23 23
+ 0.5 0 3 tcp 1040 ------- 0 0.0 3.0 24 24
+ 0.5 0 3 tcp 1040 ------- 0 0.0 3.0 25 25
+ 0.5 0 3 tcp 1040 ------- 0 0.0 3.0 26 26
+ 0.5 0 3 tcp 1040 ------- 0 0.0 3.0 27 27
+ 0.5 0 3 tcp 1040 ------- 0 0.0 3.0 28 28
+ 0.5 0 3 tcp 1040 ------- 0 0.0 3.0 29 29
+ 0.5 0 3 tcp 1040 ------- 0 0.0 3.0 30 30
+ 0.5 0 3 tcp 1040 ------- 0 0.0 3.0 31 31
+ 0.5 0 3 tcp 1040 ------- 0 0.0 3.0 32 32
+ 0.5 0 3 tcp 1040 ------- 0 0.0 3.0 33 33
+ 0.5 0 3 tcp 1040 ------- 0 0.0 3.0 34 34
+ 0.5 0 3 tcp 1040 ------- 0 0.0 3.0 35 35
+ 0.5 0 3 tcp 1040 ------- 0 0.0 3.0 36 36
+ 0.5 0 3 tcp 1040 ------- 0 0.0 3.0 37 37
+ 0.5 0 3 tcp 1040 ------- 0 0.0 3.0 38 38
+ 0.5 0 3 tcp 1040 ------- 0 0.0 3.0 39 39
+ 0.5 0 3 tcp 1040 ------- 0 0.0 3.0 40 40
+ 0.5 0 3 tcp 1040 ------- 0 0.0 3.0 41 41
+ 0.5 0 3 tcp 1040 ------- 0 0.0 3.0 42 42
+ 0.5 0 3 tcp 1040 ------- 0 0.0 3.0 43 43
+ 0.5 0 3 tcp 1040 ------- 0 0.0 3.0 44 44
+ 0.5 0 3 tcp 1040 ------- 0 0.0 3.0 45 45
+ 0.5 0 3 tcp 1040 ------- 0 0.0 3.0 46 46
+ 0.5 0 3 tcp 1040 ------- 0 0.0 3.0 47 47
+ 0.5 0 3 tcp 1040 ------- 0 0.0 3.0 48 48
+ 0.5 0 3 tcp 1040 ------- 0 0.0 3.0 49 49
+ 0.5 1 2 tcp 1000 ------- 1 1.0 2.0 0 50
- 0.5 1 2 tcp 1000 ------- 1 1.0 2.0 0 50
- 0.504 0 3 tcp 1040 ------- 0 0.0 3.0 1 1
- 0.50816 0 3 tcp 1040 ------- 0 0.0 3.0 2 2
- 0.51232 0 3 tcp 1040 ------- 0 0.0 3.0 3 3
- 0.51648 0 3 tcp 1040 ------- 0 0.0 3.0 4 4
- 0.52064 0 3 tcp 1040 ------- 0 0.0 3.0 5 5
- 0.5248 0 3 tcp 1040 ------- 0 0.0 3.0 6 6
- 0.52896 0 3 tcp 1040 ------- 0 0.0 3.0 7 7
- 0.53312 0 3 tcp 1040 ------- 0 0.0 3.0 8 8
- 0.53728 0 3 tcp 1040 ------- 0 0.0 3.0 9 9
- 0.54144 0 3 tcp 1040 ------- 0 0.0 3.0 10 10
- 0.5456 0 3 tcp 1040 ------- 0 0.0 3.0 11 11
- 0.54976 0 3 tcp 1040 ------- 0 0.0 3.0 12 12
- 0.55392 0 3 tcp 1040 ------- 0 0.0 3.0 13 13
r 0.554 1 2 tcp 1000 ------- 1 1.0 2.0 0 50
+ 0.554 2 1 ack 40 ------- 1 2.0 1.0 0 51
- 0.554 2 1 ack 40 ------- 1 2.0 1.0 0 51
- 0.55808 0 3 tcp 1040 ------- 0 0.0 3.0 14 14
- 0.56224 0 3 tcp 1040 ------- 0 0.0 3.0 15 15
- 0.5664 0 3 tcp 1040 ------- 0 0.0 3.0 16 16
- 0.57056 0 3 tcp 1040 ------- 0 0.0 3.0 17 17
- 0.57472 0 3 tcp 1040 ------- 0 0.0 3.0 18 18
- 0.57888 0 3 tcp 1040 ------- 0 0.0 3.0 19 19
- 0.58304 0 3 tcp 1040 ------- 0 0.0 3.0 20 20
- 0.5872 0 3 tcp 1040 ------- 0 0.0 3.0 21 21
- 0.59136 0 3 tcp 1040 ------- 0 0.0 3.0 22 22
- 0.59552 0 3 tcp 1040 ------- 0 0.0 3.0 23 23
- 0.59968 0 3 tcp 1040 ------- 0 0.0 3.0 24 24
- 0.60384 0 3 tcp 1040 ------- 0 0.0 3.0 25 25
r 0.60416 2 1 ack 40 ------- 1 2.0 1.0 0 51
+ 0.60416 1 2 tcp 1040 ------- 1 1.0 2.0 1 52
- 0.60416 1 2 tcp 1040 ------- 1 1.0 2.0 1 52
- 0.608 0 3 tcp 1040 ------- 0 0.0 3.0 26 26
- 0.61216 0 3 tcp 1040 ------- 0 0.0 3.0 27 27
- 0.61632 0 3 tcp 1040 ------- 0 0.0 3.0 28 28
- 0.62048 0 3 tcp 1040 ------- 0 0.0 3.0 29 29
- 0.62464 0 3 tcp 1040 ------- 0 0.0 3.0 30 30
- 0.6288 0 3 tcp 1040 ------- 0 0.0 3.0 31 31
- 0.63296 0 3 tcp 1040 ------- 0 0.0 3.0 32 32
- 0.63712 0 3 tcp 1040 ------- 0 0.0 3.0 33 33
- 0.64128 0 3 tcp 1040 ------- 0 0.0 3.0 34 34
- 0.64544 0 3 tcp 1040 ------- 0 0.0 3.0 35 35
- 0.6496 0 3 tcp 1040 ------- 0 0.0 3.0 36 36
- 0.65376 0 3 tcp 1040 ------- 0 0.0 3.0 37 37
- 0.65792 0 3 tcp 1040 ------- 0 0.0 3.0 38 38
r 0.65832 1 2 tcp 1040 ------- 1 1.0 2.0 1 52
+ 0.65832 2 1 ack 40 ------- 1 2.0 1.0 1 53
- 0.65832 2 1 ack 40 ------- 1 2.0 1.0 1 53
- 0.66208 0 3 tcp 1040 ------- 0 0.0 3.0 39 39
- 0.66624 0 3 tcp 1040 ------- 0 0.0 3.0 40 40
- 0.6704 0 3 tcp 1040 ------- 0 0.0 3.0 41 41
- 0.67456 0 3 tcp 1040 ------- 0 0.0 3.0 42 42
- 0.67872 0 3 tcp 1040 ------- 0 0.0 3.0 43 43
- 0.68288 0 3 tcp 1040 ------- 0 0.0 3.0 44 44
- 0.68704 0 3 tcp 1040 ------- 0 0.0 3.0 45 45
- 0.6912 0 3 tcp 1040 ------- 0 0.0 3.0 46 46
- 0.69536 0 3 tcp 1040 ------- 0 0.0 3.0 47 47
- 0.69952 0 3 tcp 1040 ------- 0 0.0 3.0 48 48
- 0.70368 0 3 tcp 1040 ------- 0 0.0 3.0 49 49
r 0.70848 2 1 ack 40 ------- 1 2.0 1.0 1 53
+ 0.70848 1 2 tcp 1040 ------- 1 1.0 2.0 2 54
- 0.70848 1 2 tcp 1040 ------- 1 1.0 2.0 2 54
r 0.76264 1 2 tcp 1040 ------- 1 1.0 2.0 2 54
+ 0.76264 2 1 ack 40 ------- 1 2.0 1.0 2 55
- 0.76264 2 1 ack 40 ------- 1 2.0 1.0 2 55
r 0.8128 2 1 ack 40 ------- 1 2.0 1.0 2 55
+ 0.8128 1 2 tcp 1040 ------- 1 1.0 2.0 3 56
- 0.8128 1 2 tcp 1040 ------- 1 1.0 2.0 3 56
r 0.86696 1 2 tcp 1040 ------- 1 1.0 2.0 3 56
+ 0.86696 2 1 ack 40 ------- 1 2.0 1.0 3 57
- 0.86696 2 1 ack 40 ------- 1 2.0 1.0 3 57
r 0.91712 2 1 ack 40 ------- 1 2.0 1.0 3 57
+ 0.91712 1 2 tcp 1040 ------- 1 1.0 2.0 4 58
- 0.91712 1 2 tcp 1040 ------- 1 1.0 2.0 4 58
r 0.97128 1 2 tcp 1040 ------- 1 1.0 2.0 4 58
+ 0.97128 2 1 ack 40 ------- 1 2.0 1.0 4 59
- 0.97128 2 1 ack 40 ------- 1 2.0 1.0 4 59
r 1.004 0 3 tcp 1000 ------- 0 0.0 3.0 0 0
+ 1.004 3 0 ack 40 ------- 0 3.0 0.0 0 60
- 1.004 3 0 ack 40 ------- 0 3.0 0.0 0 60
r 1.00816 0 3 tcp 1040 ------- 0 0.0 3.0 1 1
+ 1.00816 3 0 ack 40 ------- 0 3.0 0.0 1 61
- 1.00816 3 0 ack 40 ------- 0 3.0 0.0 1 61
r 1.01232 0 3 tcp 1040 ------- 0 0.0 3.0 2 2
+ 1.01232 3 0 ack 40 ------- 0 3.0 0.0 2 62
- 1.01232 3 0 ack 40 ------- 0 3.0 0.0 2 62
r 1.01648 0 3 tcp 1040 ------- 0 0.0 3.0 3 3
+ 1.01648 3 0 ack 40 ------- 0 3.0 0.0 3 63
- 1.01648 3 0 ack 40 ------- 0 3.0 0.0 3 63
r 1.02064 0 3 tcp 1040 ------- 0 0.0 3.0 4 4
+ 1.02064 3 0 ack 40 ------- 0 3.0 0.0 4 64
- 1.02064 3 0 ack 40 ------- 0 3.0 0.0 4 64
r 1.02144 2 1 ack 40 ------- 1 2.0 1.0 4 59
+ 1.02144 1 2 tcp 1040 ------- 1 1.0 2.0 5 65
- 1.02144 1 2 tcp 1040 ------- 1 1.0 2.0 5 65
r 1.0248 0 3 tcp 1040 ------- 0 0.0 3.0 5 5
+ 1.0248 3 0 ack 40 ------- 0 3.0 0.0 5 66
- 1.0248 3 0 ack 40 ------- 0 3.0 0.0 5 66
r 1.02896 0 3 tcp 1040 ------- 0 0.0 3.0 6 6
+ 1.02896 3 0 ack 40 ------- 0 3.0 0.0 6 67
- 1.02896 3 0 ack 40 ------- 0 3.0 0.0 6 67
r 1.03312 0 3 tcp 1040 ------- 0 0.0 3.0 7 7
+ 1.03312 3 0 ack 40 ------- 0 3.0 0.0 7 68
- 1.03312 3 0 ack 40 ------- 0 3.0 0.0 7 68
r 1.03728 0 3 tcp 1040 ------- 0 0.0 3.0 8 8
+ 1.03728 3 0 ack 40 ------- 0 3.0 0.0 8 69
- 1.03728 3 0 ack 40 ------- 0 3.0 0.0 8 69
r 1.04144 0 3 tcp 1040 ------- 0 0.0 3.0 9 9
+ 1.04144 3 0 ack 40 ------- 0 3.0 0.0 9 70
- 1.04144 3 0 ack 40 ------- 0 3.0 0.0 9 70
r 1.0456 0 3 tcp 1040 ------- 0 0.0 3.0 10 10
+ 1.0456 3 0 ack 40 ------- 0 3.0 0.0 10 71
- 1.0456 3 0 ack 40 ------- 0 3.0 0.0 10 71
r 1.04976 0 3 tcp 1040 ------- 0 0.0 3.0 11 11
+ 1.04976 3 0 ack 40 ------- 0 3.0 0.0 11 72
- 1.04976 3 0 ack 40 ------- 0 3.0 0.0 11 72
r 1.05392 0 3 tcp 1040 ------- 0 0.0 3.0 12 12
+ 1.05392 3 0 ack 40 ------- 0 3.0 0.0 12 73
- 1.05392 3 0 ack 40 ------- 0 3.0 0.0 12 73
r 1.05808 0 3 tcp 1040 ------- 0 0.0 3.0 13 13
+ 1.05808 3 0 ack 40 ------- 0 3.0 0.0 13 74
- 1.05808 3 0 ack 40 ------- 0 3.0 0.0 13 74
r 1.06224 0 3 tcp 1040 ------- 0 0.0 3.0 14 14
+ 1.06224 3 0 ack 40 ------- 0 3.0 0.0 14 75
- 1.06224 3 0 ack 40 ------- 0 3.0 0.0 14 75
r 1.0664 0 3 tcp 1040 ------- 0 0.0 3.0 15 15
+ 1.0664 3 0 ack 40 ------- 0 3.0 0.0 15 76
- 1.0664 3 0 ack 40 ------- 0 3.0 0.0 15 76
r 1.07056 0 3 tcp 1040 ------- 0 0.0 3.0 16 16
+ 1.07056 3 0 ack 40 ------- 0 3.0 0.0 16 77
- 1.07056 3 0 ack 40 ------- 0 3.0 0.0 16 77
r 1.07472 0 3 tcp 1040 ------- 0 0.0 3.0 17 17
+ 1.07472 3 0 ack 40 ------- 0 3.0 0.0 17 78
- 1.07472 3 0 ack 40 ------- 0 3.0 0.0 17 78
r 1.0756 1 2 tcp 1040 ------- 1 1.0 2.0 5 65
+ 1.0756 2 1 ack 40 ------- 1 2.0 1.0 5 79
- 1.0756 2 1 ack 40 ------- 1 2.0 1.0 5 79
r 1.07888 0 3 tcp 1040 ------- 0 0.0 3.0 18 18
+ 1.07888 3 0 ack 40 ------- 0 3.0 0.0 18 80
- 1.07888 3 0 ack 40 ------- 0 3.0 0.0 18 80
r 1.08304 0 3 tcp 1040 ------- 0 0.0 3.0 19 19
+ 1.08304 3 0 ack 40 ------- 0 3.0 0.0 19 81
- 1.08304 3 0 ack 40 ------- 0 3.0 0.0 19 81
r 1.0872 0 3 tcp 1040 ------- 0 0.0 3.0 20 20
+ 1.0872 3 0 ack 40 ------- 0 3.0 0.0 20 82
- 1.0872 3 0 ack 40 ------- 0 3.0 0.0 20 82
r 1.09136 0 3 tcp 1040 ------- 0 0.0 3.0 21 21
+ 1.09136 3 0 ack 40 ------- 0 3.0 0.0 21 83
- 1.09136 3 0 ack 40 ------- 0 3.0 0.0 21 83
r 1.09552 0 3 tcp 1040 ------- 0 0.0 3.0 22 22
+ 1.09552 3 0 ack 40 ------- 0 3.0 0.0 22 84
- 1.09552 3 0 ack 40 ------- 0 3.0 0.0 22 84
r 1.09968 0 3 tcp 1040 ------- 0 0.0 3.0 23 23
+ 1.09968 3 0 ack 40 ------- 0 3.0 0.0 23 85
- 1.09968 3 0 ack 40 ------- 0 3.0 0.0 23 85
r 1.10384 0 3 tcp 1040 ------- 0 0.0 3.0 24 24
+ 1.10384 3 0 ack 40 ------- 0 3.0 0.0 24 86
- 1.10384 3 0 ack 40 ------- 0 3.0 0.0 24 86
r 1.108 0 3 tcp 1040 ------- 0 0.0 3.0 25 25
+ 1.108 3 0 ack 40 ------- 0 3.0 0.0 25 87
- 1.108 3 0 ack 40 ------- 0 3.0 0.0 25 87
r 1.11216 0 3 tcp 1040 ------- 0 0.0 3.0 26 26
+ 1.11216 3 0 ack 40 ------- 0 3.0 0.0 26 88
- 1.11216 3 0 ack 40 ------- 0 3.0 0.0 26 88
r 1.11632 0 3 tcp 1040 ------- 0 0.0 3.0 27 27
+ 1.11632 3 0 ack 40 ------- 0 3.0 0.0 27 89
- 1.11632 3 0 ack 40 ------- 0 3.0 0.0 27 89
r 1.12048 0 3 tcp 1040 ------- 0 0.0 3.0 28 28
+ 1.12048 3 0 ack 40 ------- 0 3.0 0.0 28 90
- 1.12048 3 0 ack 40 ------- 0 3.0 0.0 28 90
r 1.12464 0 3 tcp 1040 ------- 0 0.0 3.0 29 29
+ 1.12464 3 0 ack 40 ------- 0 3.0 0.0 29 91
- 1.12464 3 0 ack 40 ------- 0 3.0 0.0 29 91
r 1.12576 2 1 ack 40 ------- 1 2.0 1.0 5 79
+ 1.12576 1 2 tcp 1040 ------- 1 1.0 2.0 6 92
- 1.12576 1 2 tcp 1040 ------- 1 1.0 2.0 6 92
r 1.1288 0 3 tcp 1040 ------- 0 0.0 3.0 30 30
+ 1.1288 3 0 ack 40 ------- 0 3.0 0.0 30 93
- 1.1288 3 0 ack 40 ------- 0 3.0 0.0 30 93
r 1.13296 0 3 tcp 1040 ------- 0 0.0 3.0 31 31
+ 1.13296 3 0 ack 40 ------- 0 3.0 0.0 31 94
- 1.13296 3 0 ack 40 ------- 0 3.0 0.0 31 94
r 1.13712 0 3 tcp 1040 ------- 0 0.0 3.0 32 32
+ 1.13712 3 0 ack 40 ------- 0 3.0 0.0 32 95
- 1.13712 3 0 ack 40 ------- 0 3.0 0.0 32 95
r 1.14128 0 3 tcp 1040 ------- 0 0.0 3.0 33 33
+ 1.14128 3 0 ack 40 ------- 0 3.0 0.0 33 96
- 1.14128 3 0 ack 40 ------- 0 3.0 0.0 33 96
r 1.14544 0 3 tcp 1040 ------- 0 0.0 3.0 34 34
+ 1.14544 3 0 ack 40 ------- 0 3.0 0.0 34 97
- 1.14544 3 0 ack 40 ------- 0 3.0 0.0 34 97
r 1.1496 0 3 tcp 1040 ------- 0 0.0 3.0 35 35
+ 1.1496 3 0 ack 40 ------- 0 3.0 0.0 35 98
- 1.1496 3 0 ack 40 ------- 0 3.0 0.0 35 98
r 1.15376 0 3 tcp 1040 ------- 0 0.0 3.0 36 36
+ 1.15376 3 0 ack 40 ------- 0 3.0 0.0 36 99
- 1.15376 3 0 ack 40 ------- 0 3.0 0.0 36 99
r 1.15792 0 3 tcp 1040 ------- 0 0.0 3.0 37 37
+ 1.15792 3 0 ack 40 ------- 0 3.0 0.0 37 100
- 1.15792 3 0 ack 40 ------- 0 3.0 0.0 37 100
r 1.16208 0 3 tcp 1040 ------- 0 0.0 3.0 38 38
+ 1.16208 3 0 ack 40 ------- 0 3.0 0.0 38 101
- 1.16208 3 0 ack 40 ------- 0 3.0 0.0 38 101
r 1.16624 0 3 tcp 1040 ------- 0 0.0 3.0 39 39
+ 1.16624 3 0 ack 40 ------- 0 3.0 0.0 39 102
- 1.16624 3 0 ack 40 ------- 0 3.0 0.0 39 102
r 1.1704 0 3 tcp 1040 ------- 0 0.0 3.0 40 40
+ 1.1704 3 0 ack 40 ------- 0 3.0 0.0 40 103
- 1.1704 3 0 ack 40 ------- 0 3.0 0.0 40 103
r 1.17456 0 3 tcp 1040 ------- 0 0.0 3.0 41 41
+ 1.17456 3 0 ack 40 ------- 0 3.0 0.0 41 104
- 1.17456 3 0 ack 40 ------- 0 3.0 0.0 41 104
r 1.17872 0 3 tcp 1040 ------- 0 0.0 3.0 42 42
+ 1.17872 3 0 ack 40 ------- 0 3.0 0.0 42 105
- 1.17872 3 0 ack 40 ------- 0 3.0 0.0 42 105
r 1.17992 1 2 tcp 1040 ------- 1 1.0 2.0 6 92
+ 1.17992 2 1 ack 40 ------- 1 2.0 1.0 6 106
- 1.17992 2 1 ack 40 ------- 1 2.0 1.0 6 106
r 1.18288 0 3 tcp 1040 ------- 0 0.0 3.0 43 43
+ 1.18288 3 0 ack 40 ------- 0 3.0 0.0 43 107
- 1.18288 3 0 ack 40 ------- 0 3.0 0.0 43 107
r 1.18704 0 3 tcp 1040 ------- 0 0.0 3.0 44 44
+ 1.18704 3 0 ack 40 ------- 0 3.0 0.0 44 108
- 1.18704 3 0 ack 40 ------- 0 3.0 0.0 44 108
r 1.1912 0 3 tcp 1040 ------- 0 0.0 3.0 45 45
+ 1.1912 3 0 ack 40 ------- 0 3.0 0.0 45 109
- 1.1912 3 0 ack 40 ------- 0 3.0 0.0 45 109
r 1.19536 0 3 tcp 1040 ------- 0 0.0 3.0 46 46
+ 1.19536 3 0 ack 40 ------- 0 3.0 0.0 46 110
- 1.19536 3 0 ack 40 ------- 0 3.0 0.0 46 110
r 1.19952 0 3 tcp 1040 ------- 0 0.0 3.0 47 47
+ 1.19952 3 0 ack 40 ------- 0 3.0 0.0 47 111
- 1.19952 3 0 ack 40 ------- 0 3.0 0.0 47 111
r 1.20368 0 3 tcp 1040 ------- 0 0.0 3.0 48 48
+ 1.20368 3 0 ack 40 ------- 0 3.0 0.0 48 112
- 1.20368 3 0 ack 40 ------- 0 3.0 0.0 48 112
r 1.20784 0 3 tcp 1040 ------- 0 0.0 3.0 49 49
+ 1.20784 3 0 ack 40 ------- 0 3.0 0.0 49 113
- 1.20784 3 0 ack 40 ------- 0 3.0 0.0 49 113
r 1.23008 2 1 ack 40 ------- 1 2.0 1.0 6 106
+ 1.23008 1 2 tcp 1040 ------- 1 1.0 2.0 7 114
- 1.23008 1 2 tcp 1040 ------- 1 1.0 2.0 7 114
r 1.28424 1 2 tcp 1040 ------- 1 1.0 2.0 7 114
+ 1.28424 2 1 ack 40 ------- 1 2.0 1.0 7 115
- 1.28424 2 1 ack 40 ------- 1 2.0 1.0 7 115
r 1.3344 2 1 ack 40 ------- 1 2.0 1.0 7 115
+ 1.3344 1 2 tcp 1040 ------- 1 1.0 2.0 8 116
- 1.3344 1 2 tcp 1040 ------- 1 1.0 2.0 8 116
r 1.38856 1 2 tcp 1040 ------- 1 1.0 2.0 8 116
+ 1.38856 2 1 ack 40 ------- 1 2.0 1.0 8 117
- 1.38856 2 1 ack 40 ------- 1 2.0 1.0 8 117
r 1.43872 2 1 ack 40 ------- 1 2.0 1.0 8 117
+ 1.43872 1 2 tcp 1040 ------- 1 1.0 2.0 9 118
- 1.43872 1 2 tcp 1040 ------- 1 1.0 2.0 9 118
r 1.49288 1 2 tcp 1040 ------- 1 1.0 2.0 9 118
+ 1.49288 2 1 ack 40 ------- 1 2.0 1.0 9 119
- 1.49288 2 1 ack 40 ------- 1 2.0 1.0 9 119
r 1.50416 3 0 ack 40 ------- 0 3.0 0.0 0 60
r 1.50832 3 0 ack 40 ------- 0 3.0 0.0 1 61
r 1.51248 3 0 ack 40 ------- 0 3.0 0.0 2 62
r 1.51664 3 0 ack 40 ------- 0 3.0 0.0 3 63
r 1.5208 3 0 ack 40 ------- 0 3.0 0.0 4 64
r 1.52496 3 0 ack 40 ------- 0 3.0 0.0 5 66
r 1.52912 3 0 ack 40 ------- 0 3.0 0.0 6 67
r 1.53328 3 0 ack 40 ------- 0 3.0 0.0 7 68
r 1.53744 3 0 ack 40 ------- 0 3.0 0.0 8 69
r 1.5416 3 0 ack 40 ------- 0 3.0 0.0 9 70
r 1.54304 2 1 ack 40 ------- 1 2.0 1.0 9 119
+ 1.54304 1 2 tcp 1040 ------- 1 1.0 2.0 10 120
- 1.54304 1 2 tcp 1040 ------- 1 1.0 2.0 10 120
r 1.54576 3 0 ack 40 ------- 0 3.0 0.0 10 71
r 1.54992 3 0 ack 40 ------- 0 3.0 0.0 11 72
r 1.55408 3 0 ack 40 ------- 0 3.0 0.0 12 73
r 1.55824 3 0 ack 40 ------- 0 3.0 0.0 13 74
r 1.5624 3 0 ack 40 ------- 0 3.0 0.0 14 75
r 1.56656 3 0 ack 40 ------- 0 3.0 0.0 15 76
r 1.57072 3 0 ack 40 ------- 0 3.0 0.0 16 77
r 1.57488 3 0 ack 40 ------- 0 3.0 0.0 17 78
r 1.57904 3 0 ack 40 ------- 0 3.0 0.0 18 80
r 1.5832 3 0 ack 40 ------- 0 3.0 0.0 19 81
r 1.58736 3 0 ack 40 ------- 0 3.0 0.0 20 82
r 1.59152 3 0 ack 40 ------- 0 3.0 0.0 21 83
r 1.59568 3 0 ack 40 ------- 0 3.0 0.0 22 84
r 1.5972 1 2 tcp 1040 ------- 1 1.0 2.0 10 120
+ 1.5972 2 1 ack 40 ------- 1 2.0 1.0 10 121
- 1.5972 2 1 ack 40 ------- 1 2.0 1.0 10 121
r 1.59984 3 0 ack 40 ------- 0 3.0 0.0 23 85
r 1.604 3 0 ack 40 ------- 0 3.0 0.0 24 86
r 1.60816 3 0 ack 40 ------- 0 3.0 0.0 25 87
r 1.61232 3 0 ack 40 ------- 0 3.0 0.0 26 88
r 1.61648 3 0 ack 40 ------- 0 3.0 0.0 27 89
r 1.62064 3 0 ack 40 ------- 0 3.0 0.0 28 90
r 1.6248 3 0 ack 40 ------- 0 3.0 0.0 29 91
r 1.62896 3 0 ack 40 ------- 0 3.0 0.0 30 93
r 1.63312 3 0 ack 40 ------- 0 3.0 0.0 31 94
r 1.63728 3 0 ack 40 ------- 0 3.0 0.0 32 95
r 1.64144 3 0 ack 40 ------- 0 3.0 0.0 33 96
r 1.6456 3 0 ack 40 ------- 0 3.0 0.0 34 97
r 1.64736 2 1 ack 40 ------- 1 2.0 1.0 10 121
+ 1.64736 1 2 tcp 1040 ------- 1 1.0 2.0 11 122
- 1.64736 1 2 tcp 1040 ------- 1 1.0 2.0 11 122
r 1.64976 3 0 ack 40 ------- 0 3.0 0.0 35 98
r 1.65392 3 0 ack 40 ------- 0 3.0 0.0 36 99
r 1.65808 3 0 ack 40 ------- 0 3.0 0.0 37 100
r 1.66224 3 0 ack 40 ------- 0 3.0 0.0 38 101
r 1.6664 3 0 ack 40 ------- 0 3.0 0.0 39 102
r 1.67056 3 0 ack 40 ------- 0 3.0 0.0 40 103
r 1.67472 3 0 ack 40 ------- 0 3.0 0.0 41 104
r 1.67888 3 0 ack 40 ------- 0 3.0 0.0 42 105
r 1.68304 3 0 ack 40 ------- 0 3.0 0.0 43 107
r 1.6872 3 0 ack 40 ------- 0 3.0 0.0 44 108
r 1.69136 3 0 ack 40 ------- 0 3.0 0.0 45 109
r 1.69552 3 0 ack 40 ------- 0 3.0 0.0 46 110
r 1.69968 3 0 ack 40 ------- 0 3.0 0.0 47 111
r 1.70152 1 2 tcp 1040 ------- 1 1.0 2.0 11 122
+ 1.70152 2 1 ack 40 ------- 1 2.0 1.0 11 123
- 1.70152 2 1 ack 40 ------- 1 2.0 1.0 11 123
r 1.70384 3 0 ack 40 ------- 0 3.0 0.0 48 112
r 1.708 3 0 ack 40 ------- 0 3.0 0.0 49 113
r 1.75168 2 1 ack 40 ------- 1 2.0 1.0 11 123
+ 1.75168 1 2 tcp 1040 ------- 1 1.0 2.0 12 124
- 1.75168 1 2 tcp 1040 ------- 1 1.0 2.0 12 124
r 1.80584 1 2 tcp 1040 ------- 1 1.0 2.0 12 124
+ 1.80584 2 1 ack 40 ------- 1 2.0 1.0 12 125
- 1.80584 2 1 ack 40 ------- 1 2.0 1.0 12 125
r 1.856 2 1 ack 40 ------- 1 2.0 1.0 12 125
+ 1.856 1 2 tcp 1040 ------- 1 1.0 2.0 13 126
- 1.856 1 2 tcp 1040 ------- 1 1.0 2.0 13 126
r 1.91016 1 2 tcp 1040 ------- 1 1.0 2.0 13 126
+ 1.91016 2 1 ack 40 ------- 1 2.0 1.0 13 127
- 1.91016 2 1 ack 40 ------- 1 2.0 1.0 13 127
r 1.96032 2 1 ack 40 ------- 1 2.0 1.0 13 127
+ 1.96032 1 2 tcp 1040 ------- 1 1.0 2.0 14 128
- 1.96032 1 2 tcp 1040 ------- 1 1.0 2.0 14 128
r 2.01448 1 2 tcp 1040 ------- 1 1.0 2.0 14 128
+ 2.01448 2 1 ack 40 ------- 1 2.0 1.0 14 129
- 2.01448 2 1 ack 40 ------- 1 2.0 1.0 14 129
r 2.06464 2 1 ack 40 ------- 1 2.0 1.0 14 129
+ 2.06464 1 2 tcp 1040 ------- 1 1.0 2.0 15 130
- 2.06464 1 2 tcp 1040 ------- 1 1.0 2.0 15 130
r 2.1188 1 2 tcp 1040 ------- 1 1.0 2.0 15 130
+ 2.1188 2 1 ack 40 ------- 1 2.0 1.0 15 131
- 2.1188 2 1 ack 40 ------- 1 2.0 1.0 15 131
r 2.16896 2 1 ack 40 ------- 1 2.0 1.0 15 131
+ 2.16896 1 2 tcp 1040 ------- 1 1.0 2.0 16 132
- 2.16896 1 2 tcp 1040 ------- 1 1.0 2.0 16 132
r 2.22312 1 2 tcp 1040 ------- 1 1.0 2.0 16 132
+ 2.22312 2 1 ack 40 ------- 1 2.0 1.0 16 133
- 2.22312 2 1 ack 40 ------- 1 2.0 1.0 16 133
r 2.27328 2 1 ack 40 ------- 1 2.0 1.0 16 133
+ 2.27328 1 2 tcp 1040 ------- 1 1.0 2.0 17 134
- 2.27328 1 2 tcp 1040 ------- 1 1.0 2.0 17 134
r 2.32744 1 2 tcp 1040 ------- 1 1.0 2.0 17 134
+ 2.32744 2 1 ack 40 ------- 1 2.0 1.0 17 135
- 2.32744 2 1 ack 40 ------- 1 2.0 1.0 17 135
r 2.3776 2 1 ack 40 ------- 1 2.0 1.0 17 135
+ 2.3776 1 2 tcp 1040 ------- 1 1.0 2.0 18 136
- 2.3776 1 2 tcp 1040 ------- 1 1.0 2.0 18 136
r 2.43176 1 2 tcp 1040 ------- 1 1.0 2.0 18 136
+ 2.43176 2 1 ack 40 ------- 1 2.0 1.0 18 137
- 2.43176 2 1 ack 40 ------- 1 2.0 1.0 18 137
r 2.48192 2 1 ack 40 ------- 1 2.0 1.0 18 137
+ 2.48192 1 2 tcp 1040 ------- 1 1.0 2.0 19 138
- 2.48192 1 2 tcp 1040 ------- 1 1.0 2.0 19 138
r 2.53608 1 2 tcp 1040 ------- 1 1.0 2.0 19 138
+ 2.53608 2 1 ack 40 ------- 1 2.0 1.0 19 139
- 2.53608 2 1 ack 40 ------- 1 2.0 1.0 19 139
r 2.58624 2 1 ack 40 ------- 1 2.0 1.0 19 139
+ 2.58624 1 2 tcp 1040 ------- 1 1.0 2.0 20 140
- 2.58624 1 2 tcp 1040 ------- 1 1.0 2.0 20 140
r 2.6404 1 2 tcp 1040 ------- 1 1.0 2.0 20 140
+ 2.6404 2 1 ack 40 ------- 1 2.0 1.0 20 141
- 2.6404 2 1 ack 40 ------- 1 2.0 1.0 20 141
r 2.69056 2 1 ack 40 ------- 1 2.0 1.0 20 141
+ 2.69056 1 2 tcp 1040 ------- 1 1.0 2.0 21 142
- 2.69056 1 2 tcp 1040 ------- 1 1.0 2.0 21 142
r 2.74472 1 2 tcp 1040 ------- 1 1.0 2.0 21 142
+ 2.74472 2 1 ack 40 ------- 1 2.0 1.0 21 143
- 2.74472 2 1 ack 40 ------- 1 2.0 1.0 21 143
r 2.79488 2 1 ack 40 ------- 1 2.0 1.0 21 143
+ 2.79488 1 2 tcp 1040 ------- 1 1.0 2.0 22 144
- 2.79488 1 2 tcp 1040 ------- 1 1.0 2.0 22 144
r 2.84904 1 2 tcp 1040 ------- 1 1.0 2.0 22 144
+ 2.84904 2 1 ack 40 ------- 1 2.0 1.0 22 145
- 2.84904 2 1 ack 40 ------- 1 2.0 1.0 22 145
r 2.8992 2 1 ack 40 ------- 1 2.0 1.0 22 145
+ 2.8992 1 2 tcp 1040 ------- 1 1.0 2.0 23 146
- 2.8992 1 2 tcp 1040 ------- 1 1.0 2.0 23 146
r 2.95336 1 2 tcp 1040 ------- 1 1.0 2.0 23 146
+ 2.95336 2 1 ack 40 ------- 1 2.0 1.0 23 147
- 2.95336 2 1 ack 40 ------- 1 2.0 1.0 23 147
r 3.00352 2 1 ack 40 ------- 1 2.0 1.0 23 147
+ 3.00352 1 2 tcp 1040 ------- 1 1.0 2.0 24 148
- 3.00352 1 2 tcp 1040 ------- 1 1.0 2.0 24 148
r 3.05768 1 2 tcp 1040 ------- 1 1.0 2.0 24 148
+ 3.05768 2 1 ack 40 ------- 1 2.0 1.0 24 149
- 3.05768 2 1 ack 40 ------- 1 2.0 1.0 24 149
r 3.10784 2 1 ack 40 ------- 1 2.0 1.0 24 149
+ 3.10784 1 2 tcp 1040 ------- 1 1.0 2.0 25 150
- 3.10784 1 2 tcp 1040 ------- 1 1.0 2.0 25 150
r 3.162 1 2 tcp 1040 ------- 1 1.0 2.0 25 150
+ 3.162 2 1 ack 40 ------- 1 2.0 1.0 25 151
- 3.162 2 1 ack 40 ------- 1 2.0 1.0 25 151
r 3.21216 2 1 ack 40 ------- 1 2.0 1.0 25 151
+ 3.21216 1 2 tcp 1040 ------- 1 1.0 2.0 26 152
- 3.21216 1 2 tcp 1040 ------- 1 1.0 2.0 26 152
r 3.26632 1 2 tcp 1040 ------- 1 1.0 2.0 26 152
+ 3.26632 2 1 ack 40 ------- 1 2.0 1.0 26 153
- 3.26632 2 1 ack 40 ------- 1 2.0 1.0 26 153
r 3.31648 2 1 ack 40 ------- 1 2.0 1.0 26 153
+ 3.31648 1 2 tcp 1040 ------- 1 1.0 2.0 27 154
- 3.31648 1 2 tcp 1040 ------- 1 1.0 2.0 27 154
r 3.37064 1 2 tcp 1040 ------- 1 1.0 2.0 27 154
+ 3.37064 2 1 ack 40 ------- 1 2.0 1.0 27 155
- 3.37064 2 1 ack 40 ------- 1 2.0 1.0 27 155
r 3.4208 2 1 ack 40 ------- 1 2.0 1.0 27 155
+ 3.4208 1 2 tcp 1040 ------- 1 1.0 2.0 28 156
- 3.4208 1 2 tcp 1040 ------- 1 1.0 2.0 28 156
r 3.47496 1 2 tcp 1040 ------- 1 1.0 2.0 28 156
+ 3.47496 2 1 ack 40 ------- 1 2.0 1.0 28 157
- 3.47496 2 1 ack 40 ------- 1 2.0 1.0 28 157
r 3.52512 2 1 ack 40 ------- 1 2.0 1.0 28 157
+ 3.52512 1 2 tcp 1040 ------- 1 1.0 2.0 29 158
- 3.52512 1 2 tcp 1040 ------- 1 1.0 2.0 29 158
r 3.57928 1 2 tcp 1040 ------- 1 1.0 2.0 29 158
+ 3.57928 2 1 ack 40 ------- 1 2.0 1.0 29 159
- 3.57928 2 1 ack 40 ------- 1 2.0 1.0 29 159
r 3.62944 2 1 ack 40 ------- 1 2.0 1.0 29 159
+ 3.62944 1 2 tcp 1040 ------- 1 1.0 2.0 30 160
- 3.62944 1 2 tcp 1040 ------- 1 1.0 2.0 30 160
r 3.6836 1 2 tcp 1040 ------- 1 1.0 2.0 30 160
+ 3.6836 2 1 ack 40 ------- 1 2.0 1.0 30 161
- 3.6836 2 1 ack 40 ------- 1 2.0 1.0 30 161
r 3.73376 2 1 ack 40 ------- 1 2.0 1.0 30 161
+ 3.73376 1 2 tcp 1040 ------- 1 1.0 2.0 31 162
- 3.73376 1 2 tcp 1040 ------- 1 1.0 2.0 31 162
r 3.78792 1 2 tcp 1040 ------- 1 1.0 2.0 31 162
+ 3.78792 2 1 ack 40 ------- 1 2.0 1.0 31 163
- 3.78792 2 1 ack 40 ------- 1 2.0 1.0 31 163
r 3.83808 2 1 ack 40 ------- 1 2.0 1.0 31 163
+ 3.83808 1 2 tcp 1040 ------- 1 1.0 2.0 32 164
- 3.83808 1 2 tcp 1040 ------- 1 1.0 2.0 32 164
r 3.89224 1 2 tcp 1040 ------- 1 1.0 2.0 32 164
+ 3.89224 2 1 ack 40 ------- 1 2.0 1.0 32 165
- 3.89224 2 1 ack 40 ------- 1 2.0 1.0 32 165
r 3.9424 2 1 ack 40 ------- 1 2.0 1.0 32 165
+ 3.9424 1 2 tcp 1040 ------- 1 1.0 2.0 33 166
- 3.9424 1 2 tcp 1040 ------- 1 1.0 2.0 33 166
r 3.99656 1 2 tcp 1040 ------- 1 1.0 2.0 33 166
+ 3.99656 2 1 ack 40 ------- 1 2.0 1.0 33 167
- 3.99656 2 1 ack 40 ------- 1 2.0 1.0 33 167
r 4.04672 2 1 ack 40 ------- 1 2.0 1.0 33 167
+ 4.04672 1 2 tcp 1040 ------- 1 1.0 2.0 34 168
- 4.04672 1 2 tcp 1040 ------- 1 1.0 2.0 34 168
r 4.10088 1 2 tcp 1040 ------- 1 1.0 2.0 34 168
+ 4.10088 2 1 ack 40 ------- 1 2.0 1.0 34 169
- 4.10088 2 1 ack 40 ------- 1 2.0 1.0 34 169
r 4.15104 2 1 ack 40 ------- 1 2.0 1.0 34 169
+ 4.15104 1 2 tcp 1040 ------- 1 1.0 2.0 35 170
- 4.15104 1 2 tcp 1040 ------- 1 1.0 2.0 35 170
r 4.2052 1 2 tcp 1040 ------- 1 1.0 2.0 35 170
+ 4.2052 2 1 ack 40 ------- 1 2.0 1.0 35 171
- 4.2052 2 1 ack 40 ------- 1 2.0 1.0 35 171
r 4.25536 2 1 ack 40 ------- 1 2.0 1.0 35 171
+ 4.25536 1 2 tcp 1040 ------- 1 1.0 2.0 36 172
- 4.25536 1 2 tcp 1040 ------- 1 1.0 2.0 36 172
r 4.30952 1 2 tcp 1040 ------- 1 1.0 2.0 36 172
+ 4.30952 2 1 ack 40 ------- 1 2.0 1.0 36 173
- 4.30952 2 1 ack 40 ------- 1 2.0 1.0 36 173
r 4.35968 2 1 ack 40 ------- 1 2.0 1.0 36 173
+ 4.35968 1 2 tcp 1040 ------- 1 1.0 2.0 37 174
- 4.35968 1 2 tcp 1040 ------- 1 1.0 2.0 37 174
r 4.41384 1 2 tcp 1040 ------- 1 1.0 2.0 37 174
+ 4.41384 2 1 ack 40 ------- 1 2.0 1.0 37 175
- 4.41384 2 1 ack 40 ------- 1 2.0 1.0 37 175
r 4.464 2 1 ack 40 ------- 1 2.0 1.0 37 175
+ 4.464 1 2 tcp 1040 ------- 1 1.0 2.0 38 176
- 4.464 1 2 tcp 1040 ------- 1 1.0 2.0 38 176
r 4.51816 1 2 tcp 1040 ------- 1 1.0 2.0 38 176
+ 4.51816 2 1 ack 40 ------- 1 2.0 1.0 38 177
- 4.51816 2 1 ack 40 ------- 1 2.0 1.0 38 177
r 4.56832 2 1 ack 40 ------- 1 2.0 1.0 38 177
+ 4.56832 1 2 tcp 1040 ------- 1 1.0 2.0 39 178
- 4.56832 1 2 tcp 1040 ------- 1 1.0 2.0 39 178
r 4.62248 1 2 tcp 1040 ------- 1 1.0 2.0 39 178
+ 4.62248 2 1 ack 40 ------- 1 2.0 1.0 39 179
- 4.62248 2 1 ack 40 ------- 1 2.0 1.0 39 179
r 4.67264 2 1 ack 40 ------- 1 2.0 1.0 39 179
+ 4.67264 1 2 tcp 1040 ------- 1 1.0 2.0 40 180
- 4.67264 1 2 tcp 1040 ------- 1 1.0 2.0 40 180
r 4.7268 1 2 tcp 1040 ------- 1 1.0 2.0 40 180
+ 4.7268 2 1 ack 40 ------- 1 2.0 1.0 40 181
- 4.7268 2 1 ack 40 ------- 1 2.0 1.0 40 181
r 4.77696 2 1 ack 40 ------- 1 2.0 1.0 40 181
+ 4.77696 1 2 tcp 1040 ------- 1 1.0 2.0 41 182
- 4.77696 1 2 tcp 1040 ------- 1 1.0 2.0 41 182
r 4.83112 1 2 tcp 1040 ------- 1 1.0 2.0 41 182
+ 4.83112 2 1 ack 40 ------- 1 2.0 1.0 41 183
- 4.83112 2 1 ack 40 ------- 1 2.0 1.0 41 183
r 4.88128 2 1 ack 40 ------- 1 2.0 1.0 41 183
+ 4.88128 1 2 tcp 1040 ------- 1 1.0 2.0 42 184
- 4.88128 1 2 tcp 1040 ------- 1 1.0 2.0 42 184
r 4.93544 1 2 tcp 1040 ------- 1 1.0 2.0 42 184
+ 4.93544 2 1 ack 40 ------- 1 2.0 1.0 42 185
- 4.93544 2 1 ack 40 ------- 1 2.0 1.0 42 185
r 4.9856 2 1 ack 40 ------- 1 2.0 1.0 42 185
+ 4.9856 1 2 tcp 1040 ------- 1 1.0 2.0 43 186
- 4.9856 1 2 tcp 1040 ------- 1 1.0 2.0 43 186
r 5.03976 1 2 tcp 1040 ------- 1 1.0 2.0 43 186
+ 5.03976 2 1 ack 40 ------- 1 2.0 1.0 43 187
- 5.03976 2 1 ack 40 ------- 1 2.0 1.0 43 187
r 5.08992 2 1 ack 40 ------- 1 2.0 1.0 43 187
+ 5.08992 1 2 tcp 1040 ------- 1 1.0 2.0 44 188
- 5.08992 1 2 tcp 1040 ------- 1 1.0 2.0 44 188
r 5.14408 1 2 tcp 1040 ------- 1 1.0 2.0 44 188
+ 5.14408 2 1 ack 40 ------- 1 2.0 1.0 44 189
- 5.14408 2 1 ack 40 ------- 1 2.0 1.0 44 189
r 5.19424 2 1 ack 40 ------- 1 2.0 1.0 44 189
+ 5.19424 1 2 tcp 1040 ------- 1 1.0 2.0 45 190
- 5.19424 1 2 tcp 1040 ------- 1 1.0 2.0 45 190
r 5.2484 1 2 tcp 1040 ------- 1 1.0 2.0 45 190
+ 5.2484 2 1 ack 40 ------- 1 2.0 1.0 45 191
- 5.2484 2 1 ack 40 ------- 1 2.0 1.0 45 191
r 5.29856 2 1 ack 40 ------- 1 2.0 1.0 45 191
+ 5.29856 1 2 tcp 1040 ------- 1 1.0 2.0 46 192
- 5.29856 1 2 tcp 1040 ------- 1 1.0 2.0 46 192
r 5.35272 1 2 tcp 1040 ------- 1 1.0 2.0 46 192
+ 5.35272 2 1 ack 40 ------- 1 2.0 1.0 46 193
- 5.35272 2 1 ack 40 ------- 1 2.0 1.0 46 193
r 5.40288 2 1 ack 40 ------- 1 2.0 1.0 46 193
+ 5.40288 1 2 tcp 1040 ------- 1 1.0 2.0 47 194
- 5.40288 1 2 tcp 1040 ------- 1 1.0 2.0 47 194
r 5.45704 1 2 tcp 1040 ------- 1 1.0 2.0 47 194
+ 5.45704 2 1 ack 40 ------- 1 2.0 1.0 47 195
- 5.45704 2 1 ack 40 ------- 1 2.0 1.0 47 195
r 5.5072 2 1 ack 40 ------- 1 2.0 1.0 47 195
+ 5.5072 1 2 tcp 1040 ------- 1 1.0 2.0 48 196
- 5.5072 1 2 tcp 1040 ------- 1 1.0 2.0 48 196
r 5.56136 1 2 tcp 1040 ------- 1 1.0 2.0 48 196
+ 5.56136 2 1 ack 40 ------- 1 2.0 1.0 48 197
- 5.56136 2 1 ack 40 ------- 1 2.0 1.0 48 197
r 5.61152 2 1 ack 40 ------- 1 2.0 1.0 48 197
+ 5.61152 1 2 tcp 1040 ------- 1 1.0 2.0 49 198
- 5.61152 1 2 tcp 1040 ------- 1 1.0 2.0 49 198
r 5.66568 1 2 tcp 1040 ------- 1 1.0 2.0 49 198
+ 5.66568 2 1 ack 40 ------- 1 2.0 1.0 49 199
- 5.66568 2 1 ack 40 ------- 1 2.0 1.0 49 199
r 5.71584 2 1 ack 40 ------- 1 2.0 1.0 49 199
