V -t * -v 1.0a5 -a 0
A -t * -n 1 -p 0 -o 0x7fffffff -c 30 -a 1
A -t * -h 1 -m 1073741823 -s 0
c -t * -i 0 -n red
c -t * -i 1 -n green
n -t * -a 0 -s 0 -S UP -v circle -c black -i black
n -t * -a 1 -s 1 -S UP -v circle -c black -i black
n -t * -a 2 -s 2 -S UP -v circle -c black -i black
n -t * -a 3 -s 3 -S UP -v circle -c black -i black
l -t * -s 0 -d 3 -S UP -r 2000000 -D 0.050000000000000003 -c black -o right
l -t * -s 1 -d 2 -S UP -r 2000000 -D 0.050000000000000003 -c black -o right
l -t * -s 0 -d 1 -S UP -r 2000000 -D 0.050000000000000003 -c black -o down
l -t * -s 3 -d 2 -S UP -r 2000000 -D 0.050000000000000003 -c black -o down
n -t 0 -s 0 -S DLABEL -l "GBN_sender" -L ""
n -t 0 -s 1 -S DLABEL -l "SW_sender" -L ""
n -t 0 -s 3 -S DLABEL -l "GBN_reciever" -L ""
n -t 0 -s 2 -S DLABEL -l "SW_sender" -L ""
+ -t 0.5 -s 0 -d 3 -p tcp -e 1000 -c 0 -i 0 -a 0 -x {0.0 3.0 0 ------- null}
- -t 0.5 -s 0 -d 3 -p tcp -e 1000 -c 0 -i 0 -a 0 -x {0.0 3.0 0 ------- null}
h -t 0.5 -s 0 -d 3 -p tcp -e 1000 -c 0 -i 0 -a 0 -x {0.0 3.0 -1 ------- null}
+ -t 0.5 -s 0 -d 3 -p tcp -e 1040 -c 0 -i 1 -a 0 -x {0.0 3.0 1 ------- null}
+ -t 0.5 -s 0 -d 3 -p tcp -e 1040 -c 0 -i 2 -a 0 -x {0.0 3.0 2 ------- null}
+ -t 0.5 -s 0 -d 3 -p tcp -e 1040 -c 0 -i 3 -a 0 -x {0.0 3.0 3 ------- null}
+ -t 0.5 -s 0 -d 3 -p tcp -e 1040 -c 0 -i 4 -a 0 -x {0.0 3.0 4 ------- null}
+ -t 0.5 -s 0 -d 3 -p tcp -e 1040 -c 0 -i 5 -a 0 -x {0.0 3.0 5 ------- null}
+ -t 0.5 -s 0 -d 3 -p tcp -e 1040 -c 0 -i 6 -a 0 -x {0.0 3.0 6 ------- null}
+ -t 0.5 -s 1 -d 2 -p tcp -e 1000 -c 1 -i 7 -a 1 -x {1.0 2.0 0 ------- null}
- -t 0.5 -s 1 -d 2 -p tcp -e 1000 -c 1 -i 7 -a 1 -x {1.0 2.0 0 ------- null}
h -t 0.5 -s 1 -d 2 -p tcp -e 1000 -c 1 -i 7 -a 1 -x {1.0 2.0 -1 ------- null}
- -t 0.504 -s 0 -d 3 -p tcp -e 1040 -c 0 -i 1 -a 0 -x {0.0 3.0 1 ------- null}
h -t 0.504 -s 0 -d 3 -p tcp -e 1040 -c 0 -i 1 -a 0 -x {0.0 3.0 -1 ------- null}
- -t 0.50816 -s 0 -d 3 -p tcp -e 1040 -c 0 -i 2 -a 0 -x {0.0 3.0 2 ------- null}
h -t 0.50816 -s 0 -d 3 -p tcp -e 1040 -c 0 -i 2 -a 0 -x {0.0 3.0 -1 ------- null}
- -t 0.51232 -s 0 -d 3 -p tcp -e 1040 -c 0 -i 3 -a 0 -x {0.0 3.0 3 ------- null}
h -t 0.51232 -s 0 -d 3 -p tcp -e 1040 -c 0 -i 3 -a 0 -x {0.0 3.0 -1 ------- null}
- -t 0.51648 -s 0 -d 3 -p tcp -e 1040 -c 0 -i 4 -a 0 -x {0.0 3.0 4 ------- null}
h -t 0.51648 -s 0 -d 3 -p tcp -e 1040 -c 0 -i 4 -a 0 -x {0.0 3.0 -1 ------- null}
- -t 0.52064 -s 0 -d 3 -p tcp -e 1040 -c 0 -i 5 -a 0 -x {0.0 3.0 5 ------- null}
h -t 0.52064 -s 0 -d 3 -p tcp -e 1040 -c 0 -i 5 -a 0 -x {0.0 3.0 -1 ------- null}
- -t 0.5248 -s 0 -d 3 -p tcp -e 1040 -c 0 -i 6 -a 0 -x {0.0 3.0 6 ------- null}
h -t 0.5248 -s 0 -d 3 -p tcp -e 1040 -c 0 -i 6 -a 0 -x {0.0 3.0 -1 ------- null}
r -t 0.554 -s 0 -d 3 -p tcp -e 1000 -c 0 -i 0 -a 0 -x {0.0 3.0 0 ------- null}
+ -t 0.554 -s 3 -d 0 -p ack -e 40 -c 0 -i 8 -a 0 -x {3.0 0.0 0 ------- null}
- -t 0.554 -s 3 -d 0 -p ack -e 40 -c 0 -i 8 -a 0 -x {3.0 0.0 0 ------- null}
h -t 0.554 -s 3 -d 0 -p ack -e 40 -c 0 -i 8 -a 0 -x {3.0 0.0 -1 ------- null}
r -t 0.554 -s 1 -d 2 -p tcp -e 1000 -c 1 -i 7 -a 1 -x {1.0 2.0 0 ------- null}
+ -t 0.554 -s 2 -d 1 -p ack -e 40 -c 1 -i 9 -a 1 -x {2.0 1.0 0 ------- null}
- -t 0.554 -s 2 -d 1 -p ack -e 40 -c 1 -i 9 -a 1 -x {2.0 1.0 0 ------- null}
h -t 0.554 -s 2 -d 1 -p ack -e 40 -c 1 -i 9 -a 1 -x {2.0 1.0 -1 ------- null}
r -t 0.55816 -s 0 -d 3 -p tcp -e 1040 -c 0 -i 1 -a 0 -x {0.0 3.0 1 ------- null}
+ -t 0.55816 -s 3 -d 0 -p ack -e 40 -c 0 -i 10 -a 0 -x {3.0 0.0 1 ------- null}
- -t 0.55816 -s 3 -d 0 -p ack -e 40 -c 0 -i 10 -a 0 -x {3.0 0.0 1 ------- null}
h -t 0.55816 -s 3 -d 0 -p ack -e 40 -c 0 -i 10 -a 0 -x {3.0 0.0 -1 ------- null}
r -t 0.56232 -s 0 -d 3 -p tcp -e 1040 -c 0 -i 2 -a 0 -x {0.0 3.0 2 ------- null}
+ -t 0.56232 -s 3 -d 0 -p ack -e 40 -c 0 -i 11 -a 0 -x {3.0 0.0 2 ------- null}
- -t 0.56232 -s 3 -d 0 -p ack -e 40 -c 0 -i 11 -a 0 -x {3.0 0.0 2 ------- null}
h -t 0.56232 -s 3 -d 0 -p ack -e 40 -c 0 -i 11 -a 0 -x {3.0 0.0 -1 ------- null}
r -t 0.56648 -s 0 -d 3 -p tcp -e 1040 -c 0 -i 3 -a 0 -x {0.0 3.0 3 ------- null}
+ -t 0.56648 -s 3 -d 0 -p ack -e 40 -c 0 -i 12 -a 0 -x {3.0 0.0 3 ------- null}
- -t 0.56648 -s 3 -d 0 -p ack -e 40 -c 0 -i 12 -a 0 -x {3.0 0.0 3 ------- null}
h -t 0.56648 -s 3 -d 0 -p ack -e 40 -c 0 -i 12 -a 0 -x {3.0 0.0 -1 ------- null}
r -t 0.57064 -s 0 -d 3 -p tcp -e 1040 -c 0 -i 4 -a 0 -x {0.0 3.0 4 ------- null}
+ -t 0.57064 -s 3 -d 0 -p ack -e 40 -c 0 -i 13 -a 0 -x {3.0 0.0 4 ------- null}
- -t 0.57064 -s 3 -d 0 -p ack -e 40 -c 0 -i 13 -a 0 -x {3.0 0.0 4 ------- null}
h -t 0.57064 -s 3 -d 0 -p ack -e 40 -c 0 -i 13 -a 0 -x {3.0 0.0 -1 ------- null}
r -t 0.5748 -s 0 -d 3 -p tcp -e 1040 -c 0 -i 5 -a 0 -x {0.0 3.0 5 ------- null}
+ -t 0.5748 -s 3 -d 0 -p ack -e 40 -c 0 -i 14 -a 0 -x {3.0 0.0 5 ------- null}
- -t 0.5748 -s 3 -d 0 -p ack -e 40 -c 0 -i 14 -a 0 -x {3.0 0.0 5 ------- null}
h -t 0.5748 -s 3 -d 0 -p ack -e 40 -c 0 -i 14 -a 0 -x {3.0 0.0 -1 ------- null}
r -t 0.57896 -s 0 -d 3 -p tcp -e 1040 -c 0 -i 6 -a 0 -x {0.0 3.0 6 ------- null}
+ -t 0.57896 -s 3 -d 0 -p ack -e 40 -c 0 -i 15 -a 0 -x {3.0 0.0 6 ------- null}
- -t 0.57896 -s 3 -d 0 -p ack -e 40 -c 0 -i 15 -a 0 -x {3.0 0.0 6 ------- null}
h -t 0.57896 -s 3 -d 0 -p ack -e 40 -c 0 -i 15 -a 0 -x {3.0 0.0 -1 ------- null}
r -t 0.60416 -s 3 -d 0 -p ack -e 40 -c 0 -i 8 -a 0 -x {3.0 0.0 0 ------- null}
+ -t 0.60416 -s 0 -d 3 -p tcp -e 1040 -c 0 -i 16 -a 0 -x {0.0 3.0 7 ------- null}
- -t 0.60416 -s 0 -d 3 -p tcp -e 1040 -c 0 -i 16 -a 0 -x {0.0 3.0 7 ------- null}
h -t 0.60416 -s 0 -d 3 -p tcp -e 1040 -c 0 -i 16 -a 0 -x {0.0 3.0 -1 ------- null}
r -t 0.60416 -s 2 -d 1 -p ack -e 40 -c 1 -i 9 -a 1 -x {2.0 1.0 0 ------- null}
+ -t 0.60416 -s 1 -d 2 -p tcp -e 1040 -c 1 -i 17 -a 1 -x {1.0 2.0 1 ------- null}
- -t 0.60416 -s 1 -d 2 -p tcp -e 1040 -c 1 -i 17 -a 1 -x {1.0 2.0 1 ------- null}
h -t 0.60416 -s 1 -d 2 -p tcp -e 1040 -c 1 -i 17 -a 1 -x {1.0 2.0 -1 ------- null}
r -t 0.60832 -s 3 -d 0 -p ack -e 40 -c 0 -i 10 -a 0 -x {3.0 0.0 1 ------- null}
+ -t 0.60832 -s 0 -d 3 -p tcp -e 1040 -c 0 -i 18 -a 0 -x {0.0 3.0 8 ------- null}
- -t 0.60832 -s 0 -d 3 -p tcp -e 1040 -c 0 -i 18 -a 0 -x {0.0 3.0 8 ------- null}
h -t 0.60832 -s 0 -d 3 -p tcp -e 1040 -c 0 -i 18 -a 0 -x {0.0 3.0 -1 ------- null}
r -t 0.61248 -s 3 -d 0 -p ack -e 40 -c 0 -i 11 -a 0 -x {3.0 0.0 2 ------- null}
+ -t 0.61248 -s 0 -d 3 -p tcp -e 1040 -c 0 -i 19 -a 0 -x {0.0 3.0 9 ------- null}
- -t 0.61248 -s 0 -d 3 -p tcp -e 1040 -c 0 -i 19 -a 0 -x {0.0 3.0 9 ------- null}
h -t 0.61248 -s 0 -d 3 -p tcp -e 1040 -c 0 -i 19 -a 0 -x {0.0 3.0 -1 ------- null}
r -t 0.61664 -s 3 -d 0 -p ack -e 40 -c 0 -i 12 -a 0 -x {3.0 0.0 3 ------- null}
+ -t 0.61664 -s 0 -d 3 -p tcp -e 1040 -c 0 -i 20 -a 0 -x {0.0 3.0 10 ------- null}
- -t 0.61664 -s 0 -d 3 -p tcp -e 1040 -c 0 -i 20 -a 0 -x {0.0 3.0 10 ------- null}
h -t 0.61664 -s 0 -d 3 -p tcp -e 1040 -c 0 -i 20 -a 0 -x {0.0 3.0 -1 ------- null}
r -t 0.6208 -s 3 -d 0 -p ack -e 40 -c 0 -i 13 -a 0 -x {3.0 0.0 4 ------- null}
+ -t 0.6208 -s 0 -d 3 -p tcp -e 1040 -c 0 -i 21 -a 0 -x {0.0 3.0 11 ------- null}
- -t 0.6208 -s 0 -d 3 -p tcp -e 1040 -c 0 -i 21 -a 0 -x {0.0 3.0 11 ------- null}
h -t 0.6208 -s 0 -d 3 -p tcp -e 1040 -c 0 -i 21 -a 0 -x {0.0 3.0 -1 ------- null}
r -t 0.62496 -s 3 -d 0 -p ack -e 40 -c 0 -i 14 -a 0 -x {3.0 0.0 5 ------- null}
+ -t 0.62496 -s 0 -d 3 -p tcp -e 1040 -c 0 -i 22 -a 0 -x {0.0 3.0 12 ------- null}
- -t 0.62496 -s 0 -d 3 -p tcp -e 1040 -c 0 -i 22 -a 0 -x {0.0 3.0 12 ------- null}
h -t 0.62496 -s 0 -d 3 -p tcp -e 1040 -c 0 -i 22 -a 0 -x {0.0 3.0 -1 ------- null}
r -t 0.62912 -s 3 -d 0 -p ack -e 40 -c 0 -i 15 -a 0 -x {3.0 0.0 6 ------- null}
+ -t 0.62912 -s 0 -d 3 -p tcp -e 1040 -c 0 -i 23 -a 0 -x {0.0 3.0 13 ------- null}
- -t 0.62912 -s 0 -d 3 -p tcp -e 1040 -c 0 -i 23 -a 0 -x {0.0 3.0 13 ------- null}
h -t 0.62912 -s 0 -d 3 -p tcp -e 1040 -c 0 -i 23 -a 0 -x {0.0 3.0 -1 ------- null}
r -t 0.65832 -s 0 -d 3 -p tcp -e 1040 -c 0 -i 16 -a 0 -x {0.0 3.0 7 ------- null}
+ -t 0.65832 -s 3 -d 0 -p ack -e 40 -c 0 -i 24 -a 0 -x {3.0 0.0 7 ------- null}
- -t 0.65832 -s 3 -d 0 -p ack -e 40 -c 0 -i 24 -a 0 -x {3.0 0.0 7 ------- null}
h -t 0.65832 -s 3 -d 0 -p ack -e 40 -c 0 -i 24 -a 0 -x {3.0 0.0 -1 ------- null}
r -t 0.65832 -s 1 -d 2 -p tcp -e 1040 -c 1 -i 17 -a 1 -x {1.0 2.0 1 ------- null}
+ -t 0.65832 -s 2 -d 1 -p ack -e 40 -c 1 -i 25 -a 1 -x {2.0 1.0 1 ------- null}
- -t 0.65832 -s 2 -d 1 -p ack -e 40 -c 1 -i 25 -a 1 -x {2.0 1.0 1 ------- null}
h -t 0.65832 -s 2 -d 1 -p ack -e 40 -c 1 -i 25 -a 1 -x {2.0 1.0 -1 ------- null}
r -t 0.66248 -s 0 -d 3 -p tcp -e 1040 -c 0 -i 18 -a 0 -x {0.0 3.0 8 ------- null}
+ -t 0.66248 -s 3 -d 0 -p ack -e 40 -c 0 -i 26 -a 0 -x {3.0 0.0 8 ------- null}
- -t 0.66248 -s 3 -d 0 -p ack -e 40 -c 0 -i 26 -a 0 -x {3.0 0.0 8 ------- null}
h -t 0.66248 -s 3 -d 0 -p ack -e 40 -c 0 -i 26 -a 0 -x {3.0 0.0 -1 ------- null}
r -t 0.66664 -s 0 -d 3 -p tcp -e 1040 -c 0 -i 19 -a 0 -x {0.0 3.0 9 ------- null}
+ -t 0.66664 -s 3 -d 0 -p ack -e 40 -c 0 -i 27 -a 0 -x {3.0 0.0 9 ------- null}
- -t 0.66664 -s 3 -d 0 -p ack -e 40 -c 0 -i 27 -a 0 -x {3.0 0.0 9 ------- null}
h -t 0.66664 -s 3 -d 0 -p ack -e 40 -c 0 -i 27 -a 0 -x {3.0 0.0 -1 ------- null}
r -t 0.6708 -s 0 -d 3 -p tcp -e 1040 -c 0 -i 20 -a 0 -x {0.0 3.0 10 ------- null}
+ -t 0.6708 -s 3 -d 0 -p ack -e 40 -c 0 -i 28 -a 0 -x {3.0 0.0 10 ------- null}
- -t 0.6708 -s 3 -d 0 -p ack -e 40 -c 0 -i 28 -a 0 -x {3.0 0.0 10 ------- null}
h -t 0.6708 -s 3 -d 0 -p ack -e 40 -c 0 -i 28 -a 0 -x {3.0 0.0 -1 ------- null}
r -t 0.67496 -s 0 -d 3 -p tcp -e 1040 -c 0 -i 21 -a 0 -x {0.0 3.0 11 ------- null}
+ -t 0.67496 -s 3 -d 0 -p ack -e 40 -c 0 -i 29 -a 0 -x {3.0 0.0 11 ------- null}
- -t 0.67496 -s 3 -d 0 -p ack -e 40 -c 0 -i 29 -a 0 -x {3.0 0.0 11 ------- null}
h -t 0.67496 -s 3 -d 0 -p ack -e 40 -c 0 -i 29 -a 0 -x {3.0 0.0 -1 ------- null}
r -t 0.67912 -s 0 -d 3 -p tcp -e 1040 -c 0 -i 22 -a 0 -x {0.0 3.0 12 ------- null}
+ -t 0.67912 -s 3 -d 0 -p ack -e 40 -c 0 -i 30 -a 0 -x {3.0 0.0 12 ------- null}
- -t 0.67912 -s 3 -d 0 -p ack -e 40 -c 0 -i 30 -a 0 -x {3.0 0.0 12 ------- null}
h -t 0.67912 -s 3 -d 0 -p ack -e 40 -c 0 -i 30 -a 0 -x {3.0 0.0 -1 ------- null}
r -t 0.68328 -s 0 -d 3 -p tcp -e 1040 -c 0 -i 23 -a 0 -x {0.0 3.0 13 ------- null}
+ -t 0.68328 -s 3 -d 0 -p ack -e 40 -c 0 -i 31 -a 0 -x {3.0 0.0 13 ------- null}
- -t 0.68328 -s 3 -d 0 -p ack -e 40 -c 0 -i 31 -a 0 -x {3.0 0.0 13 ------- null}
h -t 0.68328 -s 3 -d 0 -p ack -e 40 -c 0 -i 31 -a 0 -x {3.0 0.0 -1 ------- null}
r -t 0.70848 -s 3 -d 0 -p ack -e 40 -c 0 -i 24 -a 0 -x {3.0 0.0 7 ------- null}
+ -t 0.70848 -s 0 -d 3 -p tcp -e 1040 -c 0 -i 32 -a 0 -x {0.0 3.0 14 ------- null}
- -t 0.70848 -s 0 -d 3 -p tcp -e 1040 -c 0 -i 32 -a 0 -x {0.0 3.0 14 ------- null}
h -t 0.70848 -s 0 -d 3 -p tcp -e 1040 -c 0 -i 32 -a 0 -x {0.0 3.0 -1 ------- null}
r -t 0.70848 -s 2 -d 1 -p ack -e 40 -c 1 -i 25 -a 1 -x {2.0 1.0 1 ------- null}
+ -t 0.70848 -s 1 -d 2 -p tcp -e 1040 -c 1 -i 33 -a 1 -x {1.0 2.0 2 ------- null}
- -t 0.70848 -s 1 -d 2 -p tcp -e 1040 -c 1 -i 33 -a 1 -x {1.0 2.0 2 ------- null}
h -t 0.70848 -s 1 -d 2 -p tcp -e 1040 -c 1 -i 33 -a 1 -x {1.0 2.0 -1 ------- null}
r -t 0.71264 -s 3 -d 0 -p ack -e 40 -c 0 -i 26 -a 0 -x {3.0 0.0 8 ------- null}
+ -t 0.71264 -s 0 -d 3 -p tcp -e 1040 -c 0 -i 34 -a 0 -x {0.0 3.0 15 ------- null}
- -t 0.71264 -s 0 -d 3 -p tcp -e 1040 -c 0 -i 34 -a 0 -x {0.0 3.0 15 ------- null}
h -t 0.71264 -s 0 -d 3 -p tcp -e 1040 -c 0 -i 34 -a 0 -x {0.0 3.0 -1 ------- null}
r -t 0.7168 -s 3 -d 0 -p ack -e 40 -c 0 -i 27 -a 0 -x {3.0 0.0 9 ------- null}
+ -t 0.7168 -s 0 -d 3 -p tcp -e 1040 -c 0 -i 35 -a 0 -x {0.0 3.0 16 ------- null}
- -t 0.7168 -s 0 -d 3 -p tcp -e 1040 -c 0 -i 35 -a 0 -x {0.0 3.0 16 ------- null}
h -t 0.7168 -s 0 -d 3 -p tcp -e 1040 -c 0 -i 35 -a 0 -x {0.0 3.0 -1 ------- null}
r -t 0.72096 -s 3 -d 0 -p ack -e 40 -c 0 -i 28 -a 0 -x {3.0 0.0 10 ------- null}
+ -t 0.72096 -s 0 -d 3 -p tcp -e 1040 -c 0 -i 36 -a 0 -x {0.0 3.0 17 ------- null}
- -t 0.72096 -s 0 -d 3 -p tcp -e 1040 -c 0 -i 36 -a 0 -x {0.0 3.0 17 ------- null}
h -t 0.72096 -s 0 -d 3 -p tcp -e 1040 -c 0 -i 36 -a 0 -x {0.0 3.0 -1 ------- null}
r -t 0.72512 -s 3 -d 0 -p ack -e 40 -c 0 -i 29 -a 0 -x {3.0 0.0 11 ------- null}
+ -t 0.72512 -s 0 -d 3 -p tcp -e 1040 -c 0 -i 37 -a 0 -x {0.0 3.0 18 ------- null}
- -t 0.72512 -s 0 -d 3 -p tcp -e 1040 -c 0 -i 37 -a 0 -x {0.0 3.0 18 ------- null}
h -t 0.72512 -s 0 -d 3 -p tcp -e 1040 -c 0 -i 37 -a 0 -x {0.0 3.0 -1 ------- null}
r -t 0.72928 -s 3 -d 0 -p ack -e 40 -c 0 -i 30 -a 0 -x {3.0 0.0 12 ------- null}
+ -t 0.72928 -s 0 -d 3 -p tcp -e 1040 -c 0 -i 38 -a 0 -x {0.0 3.0 19 ------- null}
- -t 0.72928 -s 0 -d 3 -p tcp -e 1040 -c 0 -i 38 -a 0 -x {0.0 3.0 19 ------- null}
h -t 0.72928 -s 0 -d 3 -p tcp -e 1040 -c 0 -i 38 -a 0 -x {0.0 3.0 -1 ------- null}
r -t 0.73344 -s 3 -d 0 -p ack -e 40 -c 0 -i 31 -a 0 -x {3.0 0.0 13 ------- null}
+ -t 0.73344 -s 0 -d 3 -p tcp -e 1040 -c 0 -i 39 -a 0 -x {0.0 3.0 20 ------- null}
- -t 0.73344 -s 0 -d 3 -p tcp -e 1040 -c 0 -i 39 -a 0 -x {0.0 3.0 20 ------- null}
h -t 0.73344 -s 0 -d 3 -p tcp -e 1040 -c 0 -i 39 -a 0 -x {0.0 3.0 -1 ------- null}
r -t 0.76264 -s 0 -d 3 -p tcp -e 1040 -c 0 -i 32 -a 0 -x {0.0 3.0 14 ------- null}
+ -t 0.76264 -s 3 -d 0 -p ack -e 40 -c 0 -i 40 -a 0 -x {3.0 0.0 14 ------- null}
- -t 0.76264 -s 3 -d 0 -p ack -e 40 -c 0 -i 40 -a 0 -x {3.0 0.0 14 ------- null}
h -t 0.76264 -s 3 -d 0 -p ack -e 40 -c 0 -i 40 -a 0 -x {3.0 0.0 -1 ------- null}
r -t 0.76264 -s 1 -d 2 -p tcp -e 1040 -c 1 -i 33 -a 1 -x {1.0 2.0 2 ------- null}
+ -t 0.76264 -s 2 -d 1 -p ack -e 40 -c 1 -i 41 -a 1 -x {2.0 1.0 2 ------- null}
- -t 0.76264 -s 2 -d 1 -p ack -e 40 -c 1 -i 41 -a 1 -x {2.0 1.0 2 ------- null}
h -t 0.76264 -s 2 -d 1 -p ack -e 40 -c 1 -i 41 -a 1 -x {2.0 1.0 -1 ------- null}
r -t 0.7668 -s 0 -d 3 -p tcp -e 1040 -c 0 -i 34 -a 0 -x {0.0 3.0 15 ------- null}
+ -t 0.7668 -s 3 -d 0 -p ack -e 40 -c 0 -i 42 -a 0 -x {3.0 0.0 15 ------- null}
- -t 0.7668 -s 3 -d 0 -p ack -e 40 -c 0 -i 42 -a 0 -x {3.0 0.0 15 ------- null}
h -t 0.7668 -s 3 -d 0 -p ack -e 40 -c 0 -i 42 -a 0 -x {3.0 0.0 -1 ------- null}
r -t 0.77096 -s 0 -d 3 -p tcp -e 1040 -c 0 -i 35 -a 0 -x {0.0 3.0 16 ------- null}
+ -t 0.77096 -s 3 -d 0 -p ack -e 40 -c 0 -i 43 -a 0 -x {3.0 0.0 16 ------- null}
- -t 0.77096 -s 3 -d 0 -p ack -e 40 -c 0 -i 43 -a 0 -x {3.0 0.0 16 ------- null}
h -t 0.77096 -s 3 -d 0 -p ack -e 40 -c 0 -i 43 -a 0 -x {3.0 0.0 -1 ------- null}
r -t 0.77512 -s 0 -d 3 -p tcp -e 1040 -c 0 -i 36 -a 0 -x {0.0 3.0 17 ------- null}
+ -t 0.77512 -s 3 -d 0 -p ack -e 40 -c 0 -i 44 -a 0 -x {3.0 0.0 17 ------- null}
- -t 0.77512 -s 3 -d 0 -p ack -e 40 -c 0 -i 44 -a 0 -x {3.0 0.0 17 ------- null}
h -t 0.77512 -s 3 -d 0 -p ack -e 40 -c 0 -i 44 -a 0 -x {3.0 0.0 -1 ------- null}
r -t 0.77928 -s 0 -d 3 -p tcp -e 1040 -c 0 -i 37 -a 0 -x {0.0 3.0 18 ------- null}
+ -t 0.77928 -s 3 -d 0 -p ack -e 40 -c 0 -i 45 -a 0 -x {3.0 0.0 18 ------- null}
- -t 0.77928 -s 3 -d 0 -p ack -e 40 -c 0 -i 45 -a 0 -x {3.0 0.0 18 ------- null}
h -t 0.77928 -s 3 -d 0 -p ack -e 40 -c 0 -i 45 -a 0 -x {3.0 0.0 -1 ------- null}
r -t 0.78344 -s 0 -d 3 -p tcp -e 1040 -c 0 -i 38 -a 0 -x {0.0 3.0 19 ------- null}
+ -t 0.78344 -s 3 -d 0 -p ack -e 40 -c 0 -i 46 -a 0 -x {3.0 0.0 19 ------- null}
- -t 0.78344 -s 3 -d 0 -p ack -e 40 -c 0 -i 46 -a 0 -x {3.0 0.0 19 ------- null}
h -t 0.78344 -s 3 -d 0 -p ack -e 40 -c 0 -i 46 -a 0 -x {3.0 0.0 -1 ------- null}
r -t 0.7876 -s 0 -d 3 -p tcp -e 1040 -c 0 -i 39 -a 0 -x {0.0 3.0 20 ------- null}
+ -t 0.7876 -s 3 -d 0 -p ack -e 40 -c 0 -i 47 -a 0 -x {3.0 0.0 20 ------- null}
- -t 0.7876 -s 3 -d 0 -p ack -e 40 -c 0 -i 47 -a 0 -x {3.0 0.0 20 ------- null}
h -t 0.7876 -s 3 -d 0 -p ack -e 40 -c 0 -i 47 -a 0 -x {3.0 0.0 -1 ------- null}
r -t 0.8128 -s 3 -d 0 -p ack -e 40 -c 0 -i 40 -a 0 -x {3.0 0.0 14 ------- null}
+ -t 0.8128 -s 0 -d 3 -p tcp -e 1040 -c 0 -i 48 -a 0 -x {0.0 3.0 21 ------- null}
- -t 0.8128 -s 0 -d 3 -p tcp -e 1040 -c 0 -i 48 -a 0 -x {0.0 3.0 21 ------- null}
h -t 0.8128 -s 0 -d 3 -p tcp -e 1040 -c 0 -i 48 -a 0 -x {0.0 3.0 -1 ------- null}
r -t 0.8128 -s 2 -d 1 -p ack -e 40 -c 1 -i 41 -a 1 -x {2.0 1.0 2 ------- null}
+ -t 0.8128 -s 1 -d 2 -p tcp -e 1040 -c 1 -i 49 -a 1 -x {1.0 2.0 3 ------- null}
- -t 0.8128 -s 1 -d 2 -p tcp -e 1040 -c 1 -i 49 -a 1 -x {1.0 2.0 3 ------- null}
h -t 0.8128 -s 1 -d 2 -p tcp -e 1040 -c 1 -i 49 -a 1 -x {1.0 2.0 -1 ------- null}
r -t 0.81696 -s 3 -d 0 -p ack -e 40 -c 0 -i 42 -a 0 -x {3.0 0.0 15 ------- null}
+ -t 0.81696 -s 0 -d 3 -p tcp -e 1040 -c 0 -i 50 -a 0 -x {0.0 3.0 22 ------- null}
- -t 0.81696 -s 0 -d 3 -p tcp -e 1040 -c 0 -i 50 -a 0 -x {0.0 3.0 22 ------- null}
h -t 0.81696 -s 0 -d 3 -p tcp -e 1040 -c 0 -i 50 -a 0 -x {0.0 3.0 -1 ------- null}
r -t 0.82112 -s 3 -d 0 -p ack -e 40 -c 0 -i 43 -a 0 -x {3.0 0.0 16 ------- null}
+ -t 0.82112 -s 0 -d 3 -p tcp -e 1040 -c 0 -i 51 -a 0 -x {0.0 3.0 23 ------- null}
- -t 0.82112 -s 0 -d 3 -p tcp -e 1040 -c 0 -i 51 -a 0 -x {0.0 3.0 23 ------- null}
h -t 0.82112 -s 0 -d 3 -p tcp -e 1040 -c 0 -i 51 -a 0 -x {0.0 3.0 -1 ------- null}
r -t 0.82528 -s 3 -d 0 -p ack -e 40 -c 0 -i 44 -a 0 -x {3.0 0.0 17 ------- null}
+ -t 0.82528 -s 0 -d 3 -p tcp -e 1040 -c 0 -i 52 -a 0 -x {0.0 3.0 24 ------- null}
- -t 0.82528 -s 0 -d 3 -p tcp -e 1040 -c 0 -i 52 -a 0 -x {0.0 3.0 24 ------- null}
h -t 0.82528 -s 0 -d 3 -p tcp -e 1040 -c 0 -i 52 -a 0 -x {0.0 3.0 -1 ------- null}
r -t 0.82944 -s 3 -d 0 -p ack -e 40 -c 0 -i 45 -a 0 -x {3.0 0.0 18 ------- null}
+ -t 0.82944 -s 0 -d 3 -p tcp -e 1040 -c 0 -i 53 -a 0 -x {0.0 3.0 25 ------- null}
- -t 0.82944 -s 0 -d 3 -p tcp -e 1040 -c 0 -i 53 -a 0 -x {0.0 3.0 25 ------- null}
h -t 0.82944 -s 0 -d 3 -p tcp -e 1040 -c 0 -i 53 -a 0 -x {0.0 3.0 -1 ------- null}
r -t 0.8336 -s 3 -d 0 -p ack -e 40 -c 0 -i 46 -a 0 -x {3.0 0.0 19 ------- null}
+ -t 0.8336 -s 0 -d 3 -p tcp -e 1040 -c 0 -i 54 -a 0 -x {0.0 3.0 26 ------- null}
- -t 0.8336 -s 0 -d 3 -p tcp -e 1040 -c 0 -i 54 -a 0 -x {0.0 3.0 26 ------- null}
h -t 0.8336 -s 0 -d 3 -p tcp -e 1040 -c 0 -i 54 -a 0 -x {0.0 3.0 -1 ------- null}
r -t 0.83776 -s 3 -d 0 -p ack -e 40 -c 0 -i 47 -a 0 -x {3.0 0.0 20 ------- null}
+ -t 0.83776 -s 0 -d 3 -p tcp -e 1040 -c 0 -i 55 -a 0 -x {0.0 3.0 27 ------- null}
- -t 0.83776 -s 0 -d 3 -p tcp -e 1040 -c 0 -i 55 -a 0 -x {0.0 3.0 27 ------- null}
h -t 0.83776 -s 0 -d 3 -p tcp -e 1040 -c 0 -i 55 -a 0 -x {0.0 3.0 -1 ------- null}
r -t 0.86696 -s 0 -d 3 -p tcp -e 1040 -c 0 -i 48 -a 0 -x {0.0 3.0 21 ------- null}
+ -t 0.86696 -s 3 -d 0 -p ack -e 40 -c 0 -i 56 -a 0 -x {3.0 0.0 21 ------- null}
- -t 0.86696 -s 3 -d 0 -p ack -e 40 -c 0 -i 56 -a 0 -x {3.0 0.0 21 ------- null}
h -t 0.86696 -s 3 -d 0 -p ack -e 40 -c 0 -i 56 -a 0 -x {3.0 0.0 -1 ------- null}
r -t 0.86696 -s 1 -d 2 -p tcp -e 1040 -c 1 -i 49 -a 1 -x {1.0 2.0 3 ------- null}
+ -t 0.86696 -s 2 -d 1 -p ack -e 40 -c 1 -i 57 -a 1 -x {2.0 1.0 3 ------- null}
- -t 0.86696 -s 2 -d 1 -p ack -e 40 -c 1 -i 57 -a 1 -x {2.0 1.0 3 ------- null}
h -t 0.86696 -s 2 -d 1 -p ack -e 40 -c 1 -i 57 -a 1 -x {2.0 1.0 -1 ------- null}
r -t 0.87112 -s 0 -d 3 -p tcp -e 1040 -c 0 -i 50 -a 0 -x {0.0 3.0 22 ------- null}
+ -t 0.87112 -s 3 -d 0 -p ack -e 40 -c 0 -i 58 -a 0 -x {3.0 0.0 22 ------- null}
- -t 0.87112 -s 3 -d 0 -p ack -e 40 -c 0 -i 58 -a 0 -x {3.0 0.0 22 ------- null}
h -t 0.87112 -s 3 -d 0 -p ack -e 40 -c 0 -i 58 -a 0 -x {3.0 0.0 -1 ------- null}
r -t 0.87528 -s 0 -d 3 -p tcp -e 1040 -c 0 -i 51 -a 0 -x {0.0 3.0 23 ------- null}
+ -t 0.87528 -s 3 -d 0 -p ack -e 40 -c 0 -i 59 -a 0 -x {3.0 0.0 23 ------- null}
- -t 0.87528 -s 3 -d 0 -p ack -e 40 -c 0 -i 59 -a 0 -x {3.0 0.0 23 ------- null}
h -t 0.87528 -s 3 -d 0 -p ack -e 40 -c 0 -i 59 -a 0 -x {3.0 0.0 -1 ------- null}
r -t 0.87944 -s 0 -d 3 -p tcp -e 1040 -c 0 -i 52 -a 0 -x {0.0 3.0 24 ------- null}
+ -t 0.87944 -s 3 -d 0 -p ack -e 40 -c 0 -i 60 -a 0 -x {3.0 0.0 24 ------- null}
- -t 0.87944 -s 3 -d 0 -p ack -e 40 -c 0 -i 60 -a 0 -x {3.0 0.0 24 ------- null}
h -t 0.87944 -s 3 -d 0 -p ack -e 40 -c 0 -i 60 -a 0 -x {3.0 0.0 -1 ------- null}
r -t 0.8836 -s 0 -d 3 -p tcp -e 1040 -c 0 -i 53 -a 0 -x {0.0 3.0 25 ------- null}
+ -t 0.8836 -s 3 -d 0 -p ack -e 40 -c 0 -i 61 -a 0 -x {3.0 0.0 25 ------- null}
- -t 0.8836 -s 3 -d 0 -p ack -e 40 -c 0 -i 61 -a 0 -x {3.0 0.0 25 ------- null}
h -t 0.8836 -s 3 -d 0 -p ack -e 40 -c 0 -i 61 -a 0 -x {3.0 0.0 -1 ------- null}
r -t 0.88776 -s 0 -d 3 -p tcp -e 1040 -c 0 -i 54 -a 0 -x {0.0 3.0 26 ------- null}
+ -t 0.88776 -s 3 -d 0 -p ack -e 40 -c 0 -i 62 -a 0 -x {3.0 0.0 26 ------- null}
- -t 0.88776 -s 3 -d 0 -p ack -e 40 -c 0 -i 62 -a 0 -x {3.0 0.0 26 ------- null}
h -t 0.88776 -s 3 -d 0 -p ack -e 40 -c 0 -i 62 -a 0 -x {3.0 0.0 -1 ------- null}
r -t 0.89192 -s 0 -d 3 -p tcp -e 1040 -c 0 -i 55 -a 0 -x {0.0 3.0 27 ------- null}
+ -t 0.89192 -s 3 -d 0 -p ack -e 40 -c 0 -i 63 -a 0 -x {3.0 0.0 27 ------- null}
- -t 0.89192 -s 3 -d 0 -p ack -e 40 -c 0 -i 63 -a 0 -x {3.0 0.0 27 ------- null}
h -t 0.89192 -s 3 -d 0 -p ack -e 40 -c 0 -i 63 -a 0 -x {3.0 0.0 -1 ------- null}
r -t 0.91712 -s 3 -d 0 -p ack -e 40 -c 0 -i 56 -a 0 -x {3.0 0.0 21 ------- null}
+ -t 0.91712 -s 0 -d 3 -p tcp -e 1040 -c 0 -i 64 -a 0 -x {0.0 3.0 28 ------- null}
- -t 0.91712 -s 0 -d 3 -p tcp -e 1040 -c 0 -i 64 -a 0 -x {0.0 3.0 28 ------- null}
h -t 0.91712 -s 0 -d 3 -p tcp -e 1040 -c 0 -i 64 -a 0 -x {0.0 3.0 -1 ------- null}
r -t 0.91712 -s 2 -d 1 -p ack -e 40 -c 1 -i 57 -a 1 -x {2.0 1.0 3 ------- null}
+ -t 0.91712 -s 1 -d 2 -p tcp -e 1040 -c 1 -i 65 -a 1 -x {1.0 2.0 4 ------- null}
- -t 0.91712 -s 1 -d 2 -p tcp -e 1040 -c 1 -i 65 -a 1 -x {1.0 2.0 4 ------- null}
h -t 0.91712 -s 1 -d 2 -p tcp -e 1040 -c 1 -i 65 -a 1 -x {1.0 2.0 -1 ------- null}
r -t 0.92128 -s 3 -d 0 -p ack -e 40 -c 0 -i 58 -a 0 -x {3.0 0.0 22 ------- null}
+ -t 0.92128 -s 0 -d 3 -p tcp -e 1040 -c 0 -i 66 -a 0 -x {0.0 3.0 29 ------- null}
- -t 0.92128 -s 0 -d 3 -p tcp -e 1040 -c 0 -i 66 -a 0 -x {0.0 3.0 29 ------- null}
h -t 0.92128 -s 0 -d 3 -p tcp -e 1040 -c 0 -i 66 -a 0 -x {0.0 3.0 -1 ------- null}
r -t 0.92544 -s 3 -d 0 -p ack -e 40 -c 0 -i 59 -a 0 -x {3.0 0.0 23 ------- null}
+ -t 0.92544 -s 0 -d 3 -p tcp -e 1040 -c 0 -i 67 -a 0 -x {0.0 3.0 30 ------- null}
- -t 0.92544 -s 0 -d 3 -p tcp -e 1040 -c 0 -i 67 -a 0 -x {0.0 3.0 30 ------- null}
h -t 0.92544 -s 0 -d 3 -p tcp -e 1040 -c 0 -i 67 -a 0 -x {0.0 3.0 -1 ------- null}
r -t 0.9296 -s 3 -d 0 -p ack -e 40 -c 0 -i 60 -a 0 -x {3.0 0.0 24 ------- null}
+ -t 0.9296 -s 0 -d 3 -p tcp -e 1040 -c 0 -i 68 -a 0 -x {0.0 3.0 31 ------- null}
- -t 0.9296 -s 0 -d 3 -p tcp -e 1040 -c 0 -i 68 -a 0 -x {0.0 3.0 31 ------- null}
h -t 0.9296 -s 0 -d 3 -p tcp -e 1040 -c 0 -i 68 -a 0 -x {0.0 3.0 -1 ------- null}
r -t 0.93376 -s 3 -d 0 -p ack -e 40 -c 0 -i 61 -a 0 -x {3.0 0.0 25 ------- null}
+ -t 0.93376 -s 0 -d 3 -p tcp -e 1040 -c 0 -i 69 -a 0 -x {0.0 3.0 32 ------- null}
- -t 0.93376 -s 0 -d 3 -p tcp -e 1040 -c 0 -i 69 -a 0 -x {0.0 3.0 32 ------- null}
h -t 0.93376 -s 0 -d 3 -p tcp -e 1040 -c 0 -i 69 -a 0 -x {0.0 3.0 -1 ------- null}
r -t 0.93792 -s 3 -d 0 -p ack -e 40 -c 0 -i 62 -a 0 -x {3.0 0.0 26 ------- null}
+ -t 0.93792 -s 0 -d 3 -p tcp -e 1040 -c 0 -i 70 -a 0 -x {0.0 3.0 33 ------- null}
- -t 0.93792 -s 0 -d 3 -p tcp -e 1040 -c 0 -i 70 -a 0 -x {0.0 3.0 33 ------- null}
h -t 0.93792 -s 0 -d 3 -p tcp -e 1040 -c 0 -i 70 -a 0 -x {0.0 3.0 -1 ------- null}
r -t 0.94208 -s 3 -d 0 -p ack -e 40 -c 0 -i 63 -a 0 -x {3.0 0.0 27 ------- null}
+ -t 0.94208 -s 0 -d 3 -p tcp -e 1040 -c 0 -i 71 -a 0 -x {0.0 3.0 34 ------- null}
- -t 0.94208 -s 0 -d 3 -p tcp -e 1040 -c 0 -i 71 -a 0 -x {0.0 3.0 34 ------- null}
h -t 0.94208 -s 0 -d 3 -p tcp -e 1040 -c 0 -i 71 -a 0 -x {0.0 3.0 -1 ------- null}
r -t 0.97128 -s 0 -d 3 -p tcp -e 1040 -c 0 -i 64 -a 0 -x {0.0 3.0 28 ------- null}
+ -t 0.97128 -s 3 -d 0 -p ack -e 40 -c 0 -i 72 -a 0 -x {3.0 0.0 28 ------- null}
- -t 0.97128 -s 3 -d 0 -p ack -e 40 -c 0 -i 72 -a 0 -x {3.0 0.0 28 ------- null}
h -t 0.97128 -s 3 -d 0 -p ack -e 40 -c 0 -i 72 -a 0 -x {3.0 0.0 -1 ------- null}
r -t 0.97128 -s 1 -d 2 -p tcp -e 1040 -c 1 -i 65 -a 1 -x {1.0 2.0 4 ------- null}
+ -t 0.97128 -s 2 -d 1 -p ack -e 40 -c 1 -i 73 -a 1 -x {2.0 1.0 4 ------- null}
- -t 0.97128 -s 2 -d 1 -p ack -e 40 -c 1 -i 73 -a 1 -x {2.0 1.0 4 ------- null}
h -t 0.97128 -s 2 -d 1 -p ack -e 40 -c 1 -i 73 -a 1 -x {2.0 1.0 -1 ------- null}
r -t 0.97544 -s 0 -d 3 -p tcp -e 1040 -c 0 -i 66 -a 0 -x {0.0 3.0 29 ------- null}
+ -t 0.97544 -s 3 -d 0 -p ack -e 40 -c 0 -i 74 -a 0 -x {3.0 0.0 29 ------- null}
- -t 0.97544 -s 3 -d 0 -p ack -e 40 -c 0 -i 74 -a 0 -x {3.0 0.0 29 ------- null}
h -t 0.97544 -s 3 -d 0 -p ack -e 40 -c 0 -i 74 -a 0 -x {3.0 0.0 -1 ------- null}
r -t 0.9796 -s 0 -d 3 -p tcp -e 1040 -c 0 -i 67 -a 0 -x {0.0 3.0 30 ------- null}
+ -t 0.9796 -s 3 -d 0 -p ack -e 40 -c 0 -i 75 -a 0 -x {3.0 0.0 30 ------- null}
- -t 0.9796 -s 3 -d 0 -p ack -e 40 -c 0 -i 75 -a 0 -x {3.0 0.0 30 ------- null}
h -t 0.9796 -s 3 -d 0 -p ack -e 40 -c 0 -i 75 -a 0 -x {3.0 0.0 -1 ------- null}
r -t 0.98376 -s 0 -d 3 -p tcp -e 1040 -c 0 -i 68 -a 0 -x {0.0 3.0 31 ------- null}
+ -t 0.98376 -s 3 -d 0 -p ack -e 40 -c 0 -i 76 -a 0 -x {3.0 0.0 31 ------- null}
- -t 0.98376 -s 3 -d 0 -p ack -e 40 -c 0 -i 76 -a 0 -x {3.0 0.0 31 ------- null}
h -t 0.98376 -s 3 -d 0 -p ack -e 40 -c 0 -i 76 -a 0 -x {3.0 0.0 -1 ------- null}
r -t 0.98792 -s 0 -d 3 -p tcp -e 1040 -c 0 -i 69 -a 0 -x {0.0 3.0 32 ------- null}
+ -t 0.98792 -s 3 -d 0 -p ack -e 40 -c 0 -i 77 -a 0 -x {3.0 0.0 32 ------- null}
- -t 0.98792 -s 3 -d 0 -p ack -e 40 -c 0 -i 77 -a 0 -x {3.0 0.0 32 ------- null}
h -t 0.98792 -s 3 -d 0 -p ack -e 40 -c 0 -i 77 -a 0 -x {3.0 0.0 -1 ------- null}
r -t 0.99208 -s 0 -d 3 -p tcp -e 1040 -c 0 -i 70 -a 0 -x {0.0 3.0 33 ------- null}
+ -t 0.99208 -s 3 -d 0 -p ack -e 40 -c 0 -i 78 -a 0 -x {3.0 0.0 33 ------- null}
- -t 0.99208 -s 3 -d 0 -p ack -e 40 -c 0 -i 78 -a 0 -x {3.0 0.0 33 ------- null}
h -t 0.99208 -s 3 -d 0 -p ack -e 40 -c 0 -i 78 -a 0 -x {3.0 0.0 -1 ------- null}
r -t 0.99624 -s 0 -d 3 -p tcp -e 1040 -c 0 -i 71 -a 0 -x {0.0 3.0 34 ------- null}
+ -t 0.99624 -s 3 -d 0 -p ack -e 40 -c 0 -i 79 -a 0 -x {3.0 0.0 34 ------- null}
- -t 0.99624 -s 3 -d 0 -p ack -e 40 -c 0 -i 79 -a 0 -x {3.0 0.0 34 ------- null}
h -t 0.99624 -s 3 -d 0 -p ack -e 40 -c 0 -i 79 -a 0 -x {3.0 0.0 -1 ------- null}
r -t 1.02144 -s 3 -d 0 -p ack -e 40 -c 0 -i 72 -a 0 -x {3.0 0.0 28 ------- null}
+ -t 1.02144 -s 0 -d 3 -p tcp -e 1040 -c 0 -i 80 -a 0 -x {0.0 3.0 35 ------- null}
- -t 1.02144 -s 0 -d 3 -p tcp -e 1040 -c 0 -i 80 -a 0 -x {0.0 3.0 35 ------- null}
h -t 1.02144 -s 0 -d 3 -p tcp -e 1040 -c 0 -i 80 -a 0 -x {0.0 3.0 -1 ------- null}
r -t 1.02144 -s 2 -d 1 -p ack -e 40 -c 1 -i 73 -a 1 -x {2.0 1.0 4 ------- null}
+ -t 1.02144 -s 1 -d 2 -p tcp -e 1040 -c 1 -i 81 -a 1 -x {1.0 2.0 5 ------- null}
- -t 1.02144 -s 1 -d 2 -p tcp -e 1040 -c 1 -i 81 -a 1 -x {1.0 2.0 5 ------- null}
h -t 1.02144 -s 1 -d 2 -p tcp -e 1040 -c 1 -i 81 -a 1 -x {1.0 2.0 -1 ------- null}
r -t 1.0256 -s 3 -d 0 -p ack -e 40 -c 0 -i 74 -a 0 -x {3.0 0.0 29 ------- null}
+ -t 1.0256 -s 0 -d 3 -p tcp -e 1040 -c 0 -i 82 -a 0 -x {0.0 3.0 36 ------- null}
- -t 1.0256 -s 0 -d 3 -p tcp -e 1040 -c 0 -i 82 -a 0 -x {0.0 3.0 36 ------- null}
h -t 1.0256 -s 0 -d 3 -p tcp -e 1040 -c 0 -i 82 -a 0 -x {0.0 3.0 -1 ------- null}
r -t 1.02976 -s 3 -d 0 -p ack -e 40 -c 0 -i 75 -a 0 -x {3.0 0.0 30 ------- null}
+ -t 1.02976 -s 0 -d 3 -p tcp -e 1040 -c 0 -i 83 -a 0 -x {0.0 3.0 37 ------- null}
- -t 1.02976 -s 0 -d 3 -p tcp -e 1040 -c 0 -i 83 -a 0 -x {0.0 3.0 37 ------- null}
h -t 1.02976 -s 0 -d 3 -p tcp -e 1040 -c 0 -i 83 -a 0 -x {0.0 3.0 -1 ------- null}
r -t 1.03392 -s 3 -d 0 -p ack -e 40 -c 0 -i 76 -a 0 -x {3.0 0.0 31 ------- null}
+ -t 1.03392 -s 0 -d 3 -p tcp -e 1040 -c 0 -i 84 -a 0 -x {0.0 3.0 38 ------- null}
- -t 1.03392 -s 0 -d 3 -p tcp -e 1040 -c 0 -i 84 -a 0 -x {0.0 3.0 38 ------- null}
h -t 1.03392 -s 0 -d 3 -p tcp -e 1040 -c 0 -i 84 -a 0 -x {0.0 3.0 -1 ------- null}
r -t 1.03808 -s 3 -d 0 -p ack -e 40 -c 0 -i 77 -a 0 -x {3.0 0.0 32 ------- null}
+ -t 1.03808 -s 0 -d 3 -p tcp -e 1040 -c 0 -i 85 -a 0 -x {0.0 3.0 39 ------- null}
- -t 1.03808 -s 0 -d 3 -p tcp -e 1040 -c 0 -i 85 -a 0 -x {0.0 3.0 39 ------- null}
h -t 1.03808 -s 0 -d 3 -p tcp -e 1040 -c 0 -i 85 -a 0 -x {0.0 3.0 -1 ------- null}
r -t 1.04224 -s 3 -d 0 -p ack -e 40 -c 0 -i 78 -a 0 -x {3.0 0.0 33 ------- null}
+ -t 1.04224 -s 0 -d 3 -p tcp -e 1040 -c 0 -i 86 -a 0 -x {0.0 3.0 40 ------- null}
- -t 1.04224 -s 0 -d 3 -p tcp -e 1040 -c 0 -i 86 -a 0 -x {0.0 3.0 40 ------- null}
h -t 1.04224 -s 0 -d 3 -p tcp -e 1040 -c 0 -i 86 -a 0 -x {0.0 3.0 -1 ------- null}
r -t 1.0464 -s 3 -d 0 -p ack -e 40 -c 0 -i 79 -a 0 -x {3.0 0.0 34 ------- null}
+ -t 1.0464 -s 0 -d 3 -p tcp -e 1040 -c 0 -i 87 -a 0 -x {0.0 3.0 41 ------- null}
- -t 1.0464 -s 0 -d 3 -p tcp -e 1040 -c 0 -i 87 -a 0 -x {0.0 3.0 41 ------- null}
h -t 1.0464 -s 0 -d 3 -p tcp -e 1040 -c 0 -i 87 -a 0 -x {0.0 3.0 -1 ------- null}
r -t 1.0756 -s 0 -d 3 -p tcp -e 1040 -c 0 -i 80 -a 0 -x {0.0 3.0 35 ------- null}
+ -t 1.0756 -s 3 -d 0 -p ack -e 40 -c 0 -i 88 -a 0 -x {3.0 0.0 35 ------- null}
- -t 1.0756 -s 3 -d 0 -p ack -e 40 -c 0 -i 88 -a 0 -x {3.0 0.0 35 ------- null}
h -t 1.0756 -s 3 -d 0 -p ack -e 40 -c 0 -i 88 -a 0 -x {3.0 0.0 -1 ------- null}
r -t 1.0756 -s 1 -d 2 -p tcp -e 1040 -c 1 -i 81 -a 1 -x {1.0 2.0 5 ------- null}
+ -t 1.0756 -s 2 -d 1 -p ack -e 40 -c 1 -i 89 -a 1 -x {2.0 1.0 5 ------- null}
- -t 1.0756 -s 2 -d 1 -p ack -e 40 -c 1 -i 89 -a 1 -x {2.0 1.0 5 ------- null}
h -t 1.0756 -s 2 -d 1 -p ack -e 40 -c 1 -i 89 -a 1 -x {2.0 1.0 -1 ------- null}
r -t 1.07976 -s 0 -d 3 -p tcp -e 1040 -c 0 -i 82 -a 0 -x {0.0 3.0 36 ------- null}
+ -t 1.07976 -s 3 -d 0 -p ack -e 40 -c 0 -i 90 -a 0 -x {3.0 0.0 36 ------- null}
- -t 1.07976 -s 3 -d 0 -p ack -e 40 -c 0 -i 90 -a 0 -x {3.0 0.0 36 ------- null}
h -t 1.07976 -s 3 -d 0 -p ack -e 40 -c 0 -i 90 -a 0 -x {3.0 0.0 -1 ------- null}
r -t 1.08392 -s 0 -d 3 -p tcp -e 1040 -c 0 -i 83 -a 0 -x {0.0 3.0 37 ------- null}
+ -t 1.08392 -s 3 -d 0 -p ack -e 40 -c 0 -i 91 -a 0 -x {3.0 0.0 37 ------- null}