+ 0.5 0 3 tcp 1000 ------- 0 0.0 3.0 0 0
- 0.5 0 3 tcp 1000 ------- 0 0.0 3.0 0 0
+ 0.5 0 3 tcp 1040 ------- 0 0.0 3.0 1 1
+ 0.5 0 3 tcp 1040 ------- 0 0.0 3.0 2 2
+ 0.5 0 3 tcp 1040 ------- 0 0.0 3.0 3 3
+ 0.5 0 3 tcp 1040 ------- 0 0.0 3.0 4 4
+ 0.5 0 3 tcp 1040 ------- 0 0.0 3.0 5 5
+ 0.5 0 3 tcp 1040 ------- 0 0.0 3.0 6 6
+ 0.5 0 3 tcp 1040 ------- 0 0.0 3.0 7 7
+ 0.5 0 3 tcp 1040 ------- 0 0.0 3.0 8 8
+ 0.5 0 3 tcp 1040 ------- 0 0.0 3.0 9 9
+ 0.5 0 3 tcp 1040 ------- 0 0.0 3.0 10 10
+ 0.5 0 3 tcp 1040 ------- 0 0.0 3.0 11 11
+ 0.5 0 3 tcp 1040 ------- 0 0.0 3.0 12 12
+ 0.5 0 3 tcp 1040 ------- 0 0.0 3.0 13 13
+ 0.5 0 3 tcp 1040 ------- 0 0.0 3.0 14 14
+ 0.5 0 3 tcp 1040 ------- 0 0.0 3.0 15 15
+ 0.5 0 3 tcp 1040 ------- 0 0.0 3.0 16 16
+ 0.5 0 3 tcp 1040 ------- 0 0.0 3.0 17 17
+ 0.5 0 3 tcp 1040 ------- 0 0.0 3.0 18 18
+ 0.5 0 3 tcp 1040 ------- 0 0.0 3.0 19 19
+ 0.5 0 3 tcp 1040 ------- 0 0.0 3.0 20 20
+ 0.5 0 3 tcp 1040 ------- 0 0.0 3.0 21 21
+ 0.5 0 3 tcp 1040 ------- 0 0.0 3.0 22 22
+ 0.5 0 3 tcp 1040 ------- 0 0.0 3.0 23 23
+ 0.5 0 3 tcp 1040 ------- 0 0.0 3.0 24 24
+ 0.5 0 3 tcp 1040 ------- 0 0.0 3.0 25 25
+ 0.5 0 3 tcp 1040 ------- 0 0.0 3.0 26 26
+ 0.5 0 3 tcp 1040 ------- 0 0.0 3.0 27 27
+ 0.5 0 3 tcp 1040 ------- 0 0.0 3.0 28 28
+ 0.5 0 3 tcp 1040 ------- 0 0.0 3.0 29 29
+ 0.5 0 3 tcp 1040 ------- 0 0.0 3.0 30 30
+ 0.5 0 3 tcp 1040 ------- 0 0.0 3.0 31 31
+ 0.5 0 3 tcp 1040 ------- 0 0.0 3.0 32 32
+ 0.5 0 3 tcp 1040 ------- 0 0.0 3.0 33 33
+ 0.5 0 3 tcp 1040 ------- 0 0.0 3.0 34 34
+ 0.5 0 3 tcp 1040 ------- 0 0.0 3.0 35 35
+ 0.5 0 3 tcp 1040 ------- 0 0.0 3.0 36 36
+ 0.5 0 3 tcp 1040 ------- 0 0.0 3.0 37 37
+ 0.5 0 3 tcp 1040 ------- 0 0.0 3.0 38 38
+ 0.5 0 3 tcp 1040 ------- 0 0.0 3.0 39 39
+ 0.5 0 3 tcp 1040 ------- 0 0.0 3.0 40 40
+ 0.5 0 3 tcp 1040 ------- 0 0.0 3.0 41 41
+ 0.5 0 3 tcp 1040 ------- 0 0.0 3.0 42 42
+ 0.5 0 3 tcp 1040 ------- 0 0.0 3.0 43 43
+ 0.5 0 3 tcp 1040 ------- 0 0.0 3.0 44 44
+ 0.5 0 3 tcp 1040 ------- 0 0.0 3.0 45 45
+ 0.5 0 3 tcp 1040 ------- 0 0.0 3.0 46 46
+ 0.5 0 3 tcp 1040 ------- 0 0.0 3.0 47 47
+ 0.5 0 3 tcp 1040 ------- 0 0.0 3.0 48 48
+ 0.5 0 3 tcp 1040 ------- 0 0.0 3.0 49 49
+ 0.5 1 2 tcp 1000 ------- 1 1.0 2.0 0 50
- 0.5 1 2 tcp 1000 ------- 1 1.0 2.0 0 50
- 0.504 0 3 tcp 1040 ------- 0 0.0 3.0 1 1
- 0.50816 0 3 tcp 1040 ------- 0 0.0 3.0 2 2
- 0.51232 0 3 tcp 1040 ------- 0 0.0 3.0 3 3
- 0.51648 0 3 tcp 1040 ------- 0 0.0 3.0 4 4
- 0.52064 0 3 tcp 1040 ------- 0 0.0 3.0 5 5
- 0.5248 0 3 tcp 1040 ------- 0 0.0 3.0 6 6
- 0.52896 0 3 tcp 1040 ------- 0 0.0 3.0 7 7
- 0.53312 0 3 tcp 1040 ------- 0 0.0 3.0 8 8
- 0.53728 0 3 tcp 1040 ------- 0 0.0 3.0 9 9
- 0.54144 0 3 tcp 1040 ------- 0 0.0 3.0 10 10
- 0.5456 0 3 tcp 1040 ------- 0 0.0 3.0 11 11
- 0.54976 0 3 tcp 1040 ------- 0 0.0 3.0 12 12
- 0.55392 0 3 tcp 1040 ------- 0 0.0 3.0 13 13
r 0.554 0 3 tcp 1000 ------- 0 0.0 3.0 0 0
+ 0.554 3 0 ack 40 ------- 0 3.0 0.0 0 51
- 0.554 3 0 ack 40 ------- 0 3.0 0.0 0 51
r 0.554 1 2 tcp 1000 ------- 1 1.0 2.0 0 50
+ 0.554 2 1 ack 40 ------- 1 2.0 1.0 0 52
- 0.554 2 1 ack 40 ------- 1 2.0 1.0 0 52
- 0.55808 0 3 tcp 1040 ------- 0 0.0 3.0 14 14
r 0.55816 0 3 tcp 1040 ------- 0 0.0 3.0 1 1
+ 0.55816 3 0 ack 40 ------- 0 3.0 0.0 1 53
- 0.55816 3 0 ack 40 ------- 0 3.0 0.0 1 53
- 0.56224 0 3 tcp 1040 ------- 0 0.0 3.0 15 15
r 0.56232 0 3 tcp 1040 ------- 0 0.0 3.0 2 2
+ 0.56232 3 0 ack 40 ------- 0 3.0 0.0 2 54
- 0.56232 3 0 ack 40 ------- 0 3.0 0.0 2 54
- 0.5664 0 3 tcp 1040 ------- 0 0.0 3.0 16 16
r 0.56648 0 3 tcp 1040 ------- 0 0.0 3.0 3 3
+ 0.56648 3 0 ack 40 ------- 0 3.0 0.0 3 55
- 0.56648 3 0 ack 40 ------- 0 3.0 0.0 3 55
- 0.57056 0 3 tcp 1040 ------- 0 0.0 3.0 17 17
r 0.57064 0 3 tcp 1040 ------- 0 0.0 3.0 4 4
+ 0.57064 3 0 ack 40 ------- 0 3.0 0.0 4 56
- 0.57064 3 0 ack 40 ------- 0 3.0 0.0 4 56
- 0.57472 0 3 tcp 1040 ------- 0 0.0 3.0 18 18
r 0.5748 0 3 tcp 1040 ------- 0 0.0 3.0 5 5
+ 0.5748 3 0 ack 40 ------- 0 3.0 0.0 5 57
- 0.5748 3 0 ack 40 ------- 0 3.0 0.0 5 57
- 0.57888 0 3 tcp 1040 ------- 0 0.0 3.0 19 19
r 0.57896 0 3 tcp 1040 ------- 0 0.0 3.0 6 6
+ 0.57896 3 0 ack 40 ------- 0 3.0 0.0 6 58
- 0.57896 3 0 ack 40 ------- 0 3.0 0.0 6 58
- 0.58304 0 3 tcp 1040 ------- 0 0.0 3.0 20 20
r 0.58312 0 3 tcp 1040 ------- 0 0.0 3.0 7 7
+ 0.58312 3 0 ack 40 ------- 0 3.0 0.0 7 59
- 0.58312 3 0 ack 40 ------- 0 3.0 0.0 7 59
- 0.5872 0 3 tcp 1040 ------- 0 0.0 3.0 21 21
r 0.58728 0 3 tcp 1040 ------- 0 0.0 3.0 8 8
+ 0.58728 3 0 ack 40 ------- 0 3.0 0.0 8 60
- 0.58728 3 0 ack 40 ------- 0 3.0 0.0 8 60
- 0.59136 0 3 tcp 1040 ------- 0 0.0 3.0 22 22
r 0.59144 0 3 tcp 1040 ------- 0 0.0 3.0 9 9
+ 0.59144 3 0 ack 40 ------- 0 3.0 0.0 9 61
- 0.59144 3 0 ack 40 ------- 0 3.0 0.0 9 61
- 0.59552 0 3 tcp 1040 ------- 0 0.0 3.0 23 23
r 0.5956 0 3 tcp 1040 ------- 0 0.0 3.0 10 10
+ 0.5956 3 0 ack 40 ------- 0 3.0 0.0 10 62
- 0.5956 3 0 ack 40 ------- 0 3.0 0.0 10 62
- 0.59968 0 3 tcp 1040 ------- 0 0.0 3.0 24 24
r 0.59976 0 3 tcp 1040 ------- 0 0.0 3.0 11 11
+ 0.59976 3 0 ack 40 ------- 0 3.0 0.0 11 63
- 0.59976 3 0 ack 40 ------- 0 3.0 0.0 11 63
- 0.60384 0 3 tcp 1040 ------- 0 0.0 3.0 25 25
r 0.60392 0 3 tcp 1040 ------- 0 0.0 3.0 12 12
+ 0.60392 3 0 ack 40 ------- 0 3.0 0.0 12 64
- 0.60392 3 0 ack 40 ------- 0 3.0 0.0 12 64
r 0.60416 3 0 ack 40 ------- 0 3.0 0.0 0 51
r 0.60416 2 1 ack 40 ------- 1 2.0 1.0 0 52
+ 0.60416 1 2 tcp 1040 ------- 1 1.0 2.0 1 65
- 0.60416 1 2 tcp 1040 ------- 1 1.0 2.0 1 65
- 0.608 0 3 tcp 1040 ------- 0 0.0 3.0 26 26
r 0.60808 0 3 tcp 1040 ------- 0 0.0 3.0 13 13
+ 0.60808 3 0 ack 40 ------- 0 3.0 0.0 13 66
- 0.60808 3 0 ack 40 ------- 0 3.0 0.0 13 66
r 0.60832 3 0 ack 40 ------- 0 3.0 0.0 1 53
- 0.61216 0 3 tcp 1040 ------- 0 0.0 3.0 27 27
r 0.61224 0 3 tcp 1040 ------- 0 0.0 3.0 14 14
+ 0.61224 3 0 ack 40 ------- 0 3.0 0.0 14 67
- 0.61224 3 0 ack 40 ------- 0 3.0 0.0 14 67
r 0.61248 3 0 ack 40 ------- 0 3.0 0.0 2 54
- 0.61632 0 3 tcp 1040 ------- 0 0.0 3.0 28 28
r 0.6164 0 3 tcp 1040 ------- 0 0.0 3.0 15 15
+ 0.6164 3 0 ack 40 ------- 0 3.0 0.0 15 68
- 0.6164 3 0 ack 40 ------- 0 3.0 0.0 15 68
r 0.61664 3 0 ack 40 ------- 0 3.0 0.0 3 55
- 0.62048 0 3 tcp 1040 ------- 0 0.0 3.0 29 29
r 0.62056 0 3 tcp 1040 ------- 0 0.0 3.0 16 16
+ 0.62056 3 0 ack 40 ------- 0 3.0 0.0 16 69
- 0.62056 3 0 ack 40 ------- 0 3.0 0.0 16 69
r 0.6208 3 0 ack 40 ------- 0 3.0 0.0 4 56
- 0.62464 0 3 tcp 1040 ------- 0 0.0 3.0 30 30
r 0.62472 0 3 tcp 1040 ------- 0 0.0 3.0 17 17
+ 0.62472 3 0 ack 40 ------- 0 3.0 0.0 17 70
- 0.62472 3 0 ack 40 ------- 0 3.0 0.0 17 70
r 0.62496 3 0 ack 40 ------- 0 3.0 0.0 5 57
- 0.6288 0 3 tcp 1040 ------- 0 0.0 3.0 31 31
r 0.62888 0 3 tcp 1040 ------- 0 0.0 3.0 18 18
+ 0.62888 3 0 ack 40 ------- 0 3.0 0.0 18 71
- 0.62888 3 0 ack 40 ------- 0 3.0 0.0 18 71
r 0.62912 3 0 ack 40 ------- 0 3.0 0.0 6 58
- 0.63296 0 3 tcp 1040 ------- 0 0.0 3.0 32 32
r 0.63304 0 3 tcp 1040 ------- 0 0.0 3.0 19 19
+ 0.63304 3 0 ack 40 ------- 0 3.0 0.0 19 72
- 0.63304 3 0 ack 40 ------- 0 3.0 0.0 19 72
r 0.63328 3 0 ack 40 ------- 0 3.0 0.0 7 59
- 0.63712 0 3 tcp 1040 ------- 0 0.0 3.0 33 33
r 0.6372 0 3 tcp 1040 ------- 0 0.0 3.0 20 20
+ 0.6372 3 0 ack 40 ------- 0 3.0 0.0 20 73
- 0.6372 3 0 ack 40 ------- 0 3.0 0.0 20 73
r 0.63744 3 0 ack 40 ------- 0 3.0 0.0 8 60
- 0.64128 0 3 tcp 1040 ------- 0 0.0 3.0 34 34
r 0.64136 0 3 tcp 1040 ------- 0 0.0 3.0 21 21
+ 0.64136 3 0 ack 40 ------- 0 3.0 0.0 21 74
- 0.64136 3 0 ack 40 ------- 0 3.0 0.0 21 74
r 0.6416 3 0 ack 40 ------- 0 3.0 0.0 9 61
- 0.64544 0 3 tcp 1040 ------- 0 0.0 3.0 35 35
r 0.64552 0 3 tcp 1040 ------- 0 0.0 3.0 22 22
+ 0.64552 3 0 ack 40 ------- 0 3.0 0.0 22 75
- 0.64552 3 0 ack 40 ------- 0 3.0 0.0 22 75
r 0.64576 3 0 ack 40 ------- 0 3.0 0.0 10 62
- 0.6496 0 3 tcp 1040 ------- 0 0.0 3.0 36 36
r 0.64968 0 3 tcp 1040 ------- 0 0.0 3.0 23 23
+ 0.64968 3 0 ack 40 ------- 0 3.0 0.0 23 76
- 0.64968 3 0 ack 40 ------- 0 3.0 0.0 23 76
r 0.64992 3 0 ack 40 ------- 0 3.0 0.0 11 63
- 0.65376 0 3 tcp 1040 ------- 0 0.0 3.0 37 37
r 0.65384 0 3 tcp 1040 ------- 0 0.0 3.0 24 24
+ 0.65384 3 0 ack 40 ------- 0 3.0 0.0 24 77
- 0.65384 3 0 ack 40 ------- 0 3.0 0.0 24 77
r 0.65408 3 0 ack 40 ------- 0 3.0 0.0 12 64
- 0.65792 0 3 tcp 1040 ------- 0 0.0 3.0 38 38
r 0.658 0 3 tcp 1040 ------- 0 0.0 3.0 25 25
+ 0.658 3 0 ack 40 ------- 0 3.0 0.0 25 78
- 0.658 3 0 ack 40 ------- 0 3.0 0.0 25 78
r 0.65824 3 0 ack 40 ------- 0 3.0 0.0 13 66
r 0.65832 1 2 tcp 1040 ------- 1 1.0 2.0 1 65
+ 0.65832 2 1 ack 40 ------- 1 2.0 1.0 1 79
- 0.65832 2 1 ack 40 ------- 1 2.0 1.0 1 79
- 0.66208 0 3 tcp 1040 ------- 0 0.0 3.0 39 39
r 0.66216 0 3 tcp 1040 ------- 0 0.0 3.0 26 26
+ 0.66216 3 0 ack 40 ------- 0 3.0 0.0 26 80
- 0.66216 3 0 ack 40 ------- 0 3.0 0.0 26 80
r 0.6624 3 0 ack 40 ------- 0 3.0 0.0 14 67
- 0.66624 0 3 tcp 1040 ------- 0 0.0 3.0 40 40
r 0.66632 0 3 tcp 1040 ------- 0 0.0 3.0 27 27
+ 0.66632 3 0 ack 40 ------- 0 3.0 0.0 27 81
- 0.66632 3 0 ack 40 ------- 0 3.0 0.0 27 81
r 0.66656 3 0 ack 40 ------- 0 3.0 0.0 15 68
- 0.6704 0 3 tcp 1040 ------- 0 0.0 3.0 41 41
r 0.67048 0 3 tcp 1040 ------- 0 0.0 3.0 28 28
+ 0.67048 3 0 ack 40 ------- 0 3.0 0.0 28 82
- 0.67048 3 0 ack 40 ------- 0 3.0 0.0 28 82
r 0.67072 3 0 ack 40 ------- 0 3.0 0.0 16 69
- 0.67456 0 3 tcp 1040 ------- 0 0.0 3.0 42 42
r 0.67464 0 3 tcp 1040 ------- 0 0.0 3.0 29 29
+ 0.67464 3 0 ack 40 ------- 0 3.0 0.0 29 83
- 0.67464 3 0 ack 40 ------- 0 3.0 0.0 29 83
r 0.67488 3 0 ack 40 ------- 0 3.0 0.0 17 70
- 0.67872 0 3 tcp 1040 ------- 0 0.0 3.0 43 43
r 0.6788 0 3 tcp 1040 ------- 0 0.0 3.0 30 30
+ 0.6788 3 0 ack 40 ------- 0 3.0 0.0 30 84
- 0.6788 3 0 ack 40 ------- 0 3.0 0.0 30 84
r 0.67904 3 0 ack 40 ------- 0 3.0 0.0 18 71
- 0.68288 0 3 tcp 1040 ------- 0 0.0 3.0 44 44
r 0.68296 0 3 tcp 1040 ------- 0 0.0 3.0 31 31
+ 0.68296 3 0 ack 40 ------- 0 3.0 0.0 31 85
- 0.68296 3 0 ack 40 ------- 0 3.0 0.0 31 85
r 0.6832 3 0 ack 40 ------- 0 3.0 0.0 19 72
- 0.68704 0 3 tcp 1040 ------- 0 0.0 3.0 45 45
r 0.68712 0 3 tcp 1040 ------- 0 0.0 3.0 32 32
+ 0.68712 3 0 ack 40 ------- 0 3.0 0.0 32 86
- 0.68712 3 0 ack 40 ------- 0 3.0 0.0 32 86
r 0.68736 3 0 ack 40 ------- 0 3.0 0.0 20 73
- 0.6912 0 3 tcp 1040 ------- 0 0.0 3.0 46 46
r 0.69128 0 3 tcp 1040 ------- 0 0.0 3.0 33 33
+ 0.69128 3 0 ack 40 ------- 0 3.0 0.0 33 87
- 0.69128 3 0 ack 40 ------- 0 3.0 0.0 33 87
r 0.69152 3 0 ack 40 ------- 0 3.0 0.0 21 74
- 0.69536 0 3 tcp 1040 ------- 0 0.0 3.0 47 47
r 0.69544 0 3 tcp 1040 ------- 0 0.0 3.0 34 34
+ 0.69544 3 0 ack 40 ------- 0 3.0 0.0 34 88
- 0.69544 3 0 ack 40 ------- 0 3.0 0.0 34 88
r 0.69568 3 0 ack 40 ------- 0 3.0 0.0 22 75
- 0.69952 0 3 tcp 1040 ------- 0 0.0 3.0 48 48
r 0.6996 0 3 tcp 1040 ------- 0 0.0 3.0 35 35
+ 0.6996 3 0 ack 40 ------- 0 3.0 0.0 35 89
- 0.6996 3 0 ack 40 ------- 0 3.0 0.0 35 89
r 0.69984 3 0 ack 40 ------- 0 3.0 0.0 23 76
- 0.70368 0 3 tcp 1040 ------- 0 0.0 3.0 49 49
r 0.70376 0 3 tcp 1040 ------- 0 0.0 3.0 36 36
+ 0.70376 3 0 ack 40 ------- 0 3.0 0.0 36 90
- 0.70376 3 0 ack 40 ------- 0 3.0 0.0 36 90
r 0.704 3 0 ack 40 ------- 0 3.0 0.0 24 77
r 0.70792 0 3 tcp 1040 ------- 0 0.0 3.0 37 37
+ 0.70792 3 0 ack 40 ------- 0 3.0 0.0 37 91
- 0.70792 3 0 ack 40 ------- 0 3.0 0.0 37 91
r 0.70816 3 0 ack 40 ------- 0 3.0 0.0 25 78
r 0.70848 2 1 ack 40 ------- 1 2.0 1.0 1 79
+ 0.70848 1 2 tcp 1040 ------- 1 1.0 2.0 2 92
- 0.70848 1 2 tcp 1040 ------- 1 1.0 2.0 2 92
r 0.71208 0 3 tcp 1040 ------- 0 0.0 3.0 38 38
+ 0.71208 3 0 ack 40 ------- 0 3.0 0.0 38 93
- 0.71208 3 0 ack 40 ------- 0 3.0 0.0 38 93
r 0.71232 3 0 ack 40 ------- 0 3.0 0.0 26 80
r 0.71624 0 3 tcp 1040 ------- 0 0.0 3.0 39 39
+ 0.71624 3 0 ack 40 ------- 0 3.0 0.0 39 94
- 0.71624 3 0 ack 40 ------- 0 3.0 0.0 39 94
r 0.71648 3 0 ack 40 ------- 0 3.0 0.0 27 81
r 0.7204 0 3 tcp 1040 ------- 0 0.0 3.0 40 40
+ 0.7204 3 0 ack 40 ------- 0 3.0 0.0 40 95
- 0.7204 3 0 ack 40 ------- 0 3.0 0.0 40 95
r 0.72064 3 0 ack 40 ------- 0 3.0 0.0 28 82
r 0.72456 0 3 tcp 1040 ------- 0 0.0 3.0 41 41
+ 0.72456 3 0 ack 40 ------- 0 3.0 0.0 41 96
- 0.72456 3 0 ack 40 ------- 0 3.0 0.0 41 96
r 0.7248 3 0 ack 40 ------- 0 3.0 0.0 29 83
r 0.72872 0 3 tcp 1040 ------- 0 0.0 3.0 42 42
+ 0.72872 3 0 ack 40 ------- 0 3.0 0.0 42 97
- 0.72872 3 0 ack 40 ------- 0 3.0 0.0 42 97
r 0.72896 3 0 ack 40 ------- 0 3.0 0.0 30 84
r 0.73288 0 3 tcp 1040 ------- 0 0.0 3.0 43 43
+ 0.73288 3 0 ack 40 ------- 0 3.0 0.0 43 98
- 0.73288 3 0 ack 40 ------- 0 3.0 0.0 43 98
r 0.73312 3 0 ack 40 ------- 0 3.0 0.0 31 85
r 0.73704 0 3 tcp 1040 ------- 0 0.0 3.0 44 44
+ 0.73704 3 0 ack 40 ------- 0 3.0 0.0 44 99
- 0.73704 3 0 ack 40 ------- 0 3.0 0.0 44 99
r 0.73728 3 0 ack 40 ------- 0 3.0 0.0 32 86
r 0.7412 0 3 tcp 1040 ------- 0 0.0 3.0 45 45
+ 0.7412 3 0 ack 40 ------- 0 3.0 0.0 45 100
- 0.7412 3 0 ack 40 ------- 0 3.0 0.0 45 100
r 0.74144 3 0 ack 40 ------- 0 3.0 0.0 33 87
r 0.74536 0 3 tcp 1040 ------- 0 0.0 3.0 46 46
+ 0.74536 3 0 ack 40 ------- 0 3.0 0.0 46 101
- 0.74536 3 0 ack 40 ------- 0 3.0 0.0 46 101
r 0.7456 3 0 ack 40 ------- 0 3.0 0.0 34 88
r 0.74952 0 3 tcp 1040 ------- 0 0.0 3.0 47 47
+ 0.74952 3 0 ack 40 ------- 0 3.0 0.0 47 102
- 0.74952 3 0 ack 40 ------- 0 3.0 0.0 47 102
r 0.74976 3 0 ack 40 ------- 0 3.0 0.0 35 89
r 0.75368 0 3 tcp 1040 ------- 0 0.0 3.0 48 48
+ 0.75368 3 0 ack 40 ------- 0 3.0 0.0 48 103
- 0.75368 3 0 ack 40 ------- 0 3.0 0.0 48 103
r 0.75392 3 0 ack 40 ------- 0 3.0 0.0 36 90
r 0.75784 0 3 tcp 1040 ------- 0 0.0 3.0 49 49
+ 0.75784 3 0 ack 40 ------- 0 3.0 0.0 49 104
- 0.75784 3 0 ack 40 ------- 0 3.0 0.0 49 104
r 0.75808 3 0 ack 40 ------- 0 3.0 0.0 37 91
r 0.76224 3 0 ack 40 ------- 0 3.0 0.0 38 93
r 0.76264 1 2 tcp 1040 ------- 1 1.0 2.0 2 92
+ 0.76264 2 1 ack 40 ------- 1 2.0 1.0 2 105
- 0.76264 2 1 ack 40 ------- 1 2.0 1.0 2 105
r 0.7664 3 0 ack 40 ------- 0 3.0 0.0 39 94
r 0.77056 3 0 ack 40 ------- 0 3.0 0.0 40 95
r 0.77472 3 0 ack 40 ------- 0 3.0 0.0 41 96
r 0.77888 3 0 ack 40 ------- 0 3.0 0.0 42 97
r 0.78304 3 0 ack 40 ------- 0 3.0 0.0 43 98
r 0.7872 3 0 ack 40 ------- 0 3.0 0.0 44 99
r 0.79136 3 0 ack 40 ------- 0 3.0 0.0 45 100
r 0.79552 3 0 ack 40 ------- 0 3.0 0.0 46 101
r 0.79968 3 0 ack 40 ------- 0 3.0 0.0 47 102
r 0.80384 3 0 ack 40 ------- 0 3.0 0.0 48 103
r 0.808 3 0 ack 40 ------- 0 3.0 0.0 49 104
r 0.8128 2 1 ack 40 ------- 1 2.0 1.0 2 105
+ 0.8128 1 2 tcp 1040 ------- 1 1.0 2.0 3 106
- 0.8128 1 2 tcp 1040 ------- 1 1.0 2.0 3 106
r 0.86696 1 2 tcp 1040 ------- 1 1.0 2.0 3 106
+ 0.86696 2 1 ack 40 ------- 1 2.0 1.0 3 107
- 0.86696 2 1 ack 40 ------- 1 2.0 1.0 3 107
r 0.91712 2 1 ack 40 ------- 1 2.0 1.0 3 107
+ 0.91712 1 2 tcp 1040 ------- 1 1.0 2.0 4 108
- 0.91712 1 2 tcp 1040 ------- 1 1.0 2.0 4 108
r 0.97128 1 2 tcp 1040 ------- 1 1.0 2.0 4 108
+ 0.97128 2 1 ack 40 ------- 1 2.0 1.0 4 109
- 0.97128 2 1 ack 40 ------- 1 2.0 1.0 4 109
r 1.02144 2 1 ack 40 ------- 1 2.0 1.0 4 109
+ 1.02144 1 2 tcp 1040 ------- 1 1.0 2.0 5 110
- 1.02144 1 2 tcp 1040 ------- 1 1.0 2.0 5 110
r 1.0756 1 2 tcp 1040 ------- 1 1.0 2.0 5 110
+ 1.0756 2 1 ack 40 ------- 1 2.0 1.0 5 111
- 1.0756 2 1 ack 40 ------- 1 2.0 1.0 5 111
r 1.12576 2 1 ack 40 ------- 1 2.0 1.0 5 111
+ 1.12576 1 2 tcp 1040 ------- 1 1.0 2.0 6 112
- 1.12576 1 2 tcp 1040 ------- 1 1.0 2.0 6 112
r 1.17992 1 2 tcp 1040 ------- 1 1.0 2.0 6 112
+ 1.17992 2 1 ack 40 ------- 1 2.0 1.0 6 113
- 1.17992 2 1 ack 40 ------- 1 2.0 1.0 6 113
r 1.23008 2 1 ack 40 ------- 1 2.0 1.0 6 113
+ 1.23008 1 2 tcp 1040 ------- 1 1.0 2.0 7 114
- 1.23008 1 2 tcp 1040 ------- 1 1.0 2.0 7 114
r 1.28424 1 2 tcp 1040 ------- 1 1.0 2.0 7 114
+ 1.28424 2 1 ack 40 ------- 1 2.0 1.0 7 115
- 1.28424 2 1 ack 40 ------- 1 2.0 1.0 7 115
r 1.3344 2 1 ack 40 ------- 1 2.0 1.0 7 115
+ 1.3344 1 2 tcp 1040 ------- 1 1.0 2.0 8 116
- 1.3344 1 2 tcp 1040 ------- 1 1.0 2.0 8 116
r 1.38856 1 2 tcp 1040 ------- 1 1.0 2.0 8 116
+ 1.38856 2 1 ack 40 ------- 1 2.0 1.0 8 117
- 1.38856 2 1 ack 40 ------- 1 2.0 1.0 8 117
r 1.43872 2 1 ack 40 ------- 1 2.0 1.0 8 117
+ 1.43872 1 2 tcp 1040 ------- 1 1.0 2.0 9 118
- 1.43872 1 2 tcp 1040 ------- 1 1.0 2.0 9 118
r 1.49288 1 2 tcp 1040 ------- 1 1.0 2.0 9 118
+ 1.49288 2 1 ack 40 ------- 1 2.0 1.0 9 119
- 1.49288 2 1 ack 40 ------- 1 2.0 1.0 9 119
r 1.54304 2 1 ack 40 ------- 1 2.0 1.0 9 119
+ 1.54304 1 2 tcp 1040 ------- 1 1.0 2.0 10 120
- 1.54304 1 2 tcp 1040 ------- 1 1.0 2.0 10 120
r 1.5972 1 2 tcp 1040 ------- 1 1.0 2.0 10 120
+ 1.5972 2 1 ack 40 ------- 1 2.0 1.0 10 121
- 1.5972 2 1 ack 40 ------- 1 2.0 1.0 10 121
r 1.64736 2 1 ack 40 ------- 1 2.0 1.0 10 121
+ 1.64736 1 2 tcp 1040 ------- 1 1.0 2.0 11 122
- 1.64736 1 2 tcp 1040 ------- 1 1.0 2.0 11 122
r 1.70152 1 2 tcp 1040 ------- 1 1.0 2.0 11 122
+ 1.70152 2 1 ack 40 ------- 1 2.0 1.0 11 123
- 1.70152 2 1 ack 40 ------- 1 2.0 1.0 11 123
r 1.75168 2 1 ack 40 ------- 1 2.0 1.0 11 123
+ 1.75168 1 2 tcp 1040 ------- 1 1.0 2.0 12 124
- 1.75168 1 2 tcp 1040 ------- 1 1.0 2.0 12 124
r 1.80584 1 2 tcp 1040 ------- 1 1.0 2.0 12 124
+ 1.80584 2 1 ack 40 ------- 1 2.0 1.0 12 125
- 1.80584 2 1 ack 40 ------- 1 2.0 1.0 12 125
r 1.856 2 1 ack 40 ------- 1 2.0 1.0 12 125
+ 1.856 1 2 tcp 1040 ------- 1 1.0 2.0 13 126
- 1.856 1 2 tcp 1040 ------- 1 1.0 2.0 13 126
r 1.91016 1 2 tcp 1040 ------- 1 1.0 2.0 13 126
+ 1.91016 2 1 ack 40 ------- 1 2.0 1.0 13 127
- 1.91016 2 1 ack 40 ------- 1 2.0 1.0 13 127
r 1.96032 2 1 ack 40 ------- 1 2.0 1.0 13 127
+ 1.96032 1 2 tcp 1040 ------- 1 1.0 2.0 14 128
- 1.96032 1 2 tcp 1040 ------- 1 1.0 2.0 14 128
r 2.01448 1 2 tcp 1040 ------- 1 1.0 2.0 14 128
+ 2.01448 2 1 ack 40 ------- 1 2.0 1.0 14 129
- 2.01448 2 1 ack 40 ------- 1 2.0 1.0 14 129
r 2.06464 2 1 ack 40 ------- 1 2.0 1.0 14 129
+ 2.06464 1 2 tcp 1040 ------- 1 1.0 2.0 15 130
- 2.06464 1 2 tcp 1040 ------- 1 1.0 2.0 15 130
r 2.1188 1 2 tcp 1040 ------- 1 1.0 2.0 15 130
+ 2.1188 2 1 ack 40 ------- 1 2.0 1.0 15 131
- 2.1188 2 1 ack 40 ------- 1 2.0 1.0 15 131
r 2.16896 2 1 ack 40 ------- 1 2.0 1.0 15 131
+ 2.16896 1 2 tcp 1040 ------- 1 1.0 2.0 16 132
- 2.16896 1 2 tcp 1040 ------- 1 1.0 2.0 16 132
r 2.22312 1 2 tcp 1040 ------- 1 1.0 2.0 16 132
+ 2.22312 2 1 ack 40 ------- 1 2.0 1.0 16 133
- 2.22312 2 1 ack 40 ------- 1 2.0 1.0 16 133
r 2.27328 2 1 ack 40 ------- 1 2.0 1.0 16 133
+ 2.27328 1 2 tcp 1040 ------- 1 1.0 2.0 17 134
- 2.27328 1 2 tcp 1040 ------- 1 1.0 2.0 17 134
r 2.32744 1 2 tcp 1040 ------- 1 1.0 2.0 17 134
+ 2.32744 2 1 ack 40 ------- 1 2.0 1.0 17 135
- 2.32744 2 1 ack 40 ------- 1 2.0 1.0 17 135
r 2.3776 2 1 ack 40 ------- 1 2.0 1.0 17 135
+ 2.3776 1 2 tcp 1040 ------- 1 1.0 2.0 18 136
- 2.3776 1 2 tcp 1040 ------- 1 1.0 2.0 18 136
r 2.43176 1 2 tcp 1040 ------- 1 1.0 2.0 18 136
+ 2.43176 2 1 ack 40 ------- 1 2.0 1.0 18 137
- 2.43176 2 1 ack 40 ------- 1 2.0 1.0 18 137
r 2.48192 2 1 ack 40 ------- 1 2.0 1.0 18 137
+ 2.48192 1 2 tcp 1040 ------- 1 1.0 2.0 19 138
- 2.48192 1 2 tcp 1040 ------- 1 1.0 2.0 19 138
r 2.53608 1 2 tcp 1040 ------- 1 1.0 2.0 19 138
+ 2.53608 2 1 ack 40 ------- 1 2.0 1.0 19 139
- 2.53608 2 1 ack 40 ------- 1 2.0 1.0 19 139
r 2.58624 2 1 ack 40 ------- 1 2.0 1.0 19 139
+ 2.58624 1 2 tcp 1040 ------- 1 1.0 2.0 20 140
- 2.58624 1 2 tcp 1040 ------- 1 1.0 2.0 20 140
r 2.6404 1 2 tcp 1040 ------- 1 1.0 2.0 20 140
+ 2.6404 2 1 ack 40 ------- 1 2.0 1.0 20 141
- 2.6404 2 1 ack 40 ------- 1 2.0 1.0 20 141
r 2.69056 2 1 ack 40 ------- 1 2.0 1.0 20 141
+ 2.69056 1 2 tcp 1040 ------- 1 1.0 2.0 21 142
- 2.69056 1 2 tcp 1040 ------- 1 1.0 2.0 21 142
r 2.74472 1 2 tcp 1040 ------- 1 1.0 2.0 21 142
+ 2.74472 2 1 ack 40 ------- 1 2.0 1.0 21 143
- 2.74472 2 1 ack 40 ------- 1 2.0 1.0 21 143
r 2.79488 2 1 ack 40 ------- 1 2.0 1.0 21 143
+ 2.79488 1 2 tcp 1040 ------- 1 1.0 2.0 22 144
- 2.79488 1 2 tcp 1040 ------- 1 1.0 2.0 22 144
r 2.84904 1 2 tcp 1040 ------- 1 1.0 2.0 22 144
+ 2.84904 2 1 ack 40 ------- 1 2.0 1.0 22 145
- 2.84904 2 1 ack 40 ------- 1 2.0 1.0 22 145
r 2.8992 2 1 ack 40 ------- 1 2.0 1.0 22 145
+ 2.8992 1 2 tcp 1040 ------- 1 1.0 2.0 23 146
- 2.8992 1 2 tcp 1040 ------- 1 1.0 2.0 23 146
r 2.95336 1 2 tcp 1040 ------- 1 1.0 2.0 23 146
+ 2.95336 2 1 ack 40 ------- 1 2.0 1.0 23 147
- 2.95336 2 1 ack 40 ------- 1 2.0 1.0 23 147
r 3.00352 2 1 ack 40 ------- 1 2.0 1.0 23 147
+ 3.00352 1 2 tcp 1040 ------- 1 1.0 2.0 24 148
- 3.00352 1 2 tcp 1040 ------- 1 1.0 2.0 24 148
r 3.05768 1 2 tcp 1040 ------- 1 1.0 2.0 24 148
+ 3.05768 2 1 ack 40 ------- 1 2.0 1.0 24 149
- 3.05768 2 1 ack 40 ------- 1 2.0 1.0 24 149
r 3.10784 2 1 ack 40 ------- 1 2.0 1.0 24 149
+ 3.10784 1 2 tcp 1040 ------- 1 1.0 2.0 25 150
- 3.10784 1 2 tcp 1040 ------- 1 1.0 2.0 25 150
r 3.162 1 2 tcp 1040 ------- 1 1.0 2.0 25 150
+ 3.162 2 1 ack 40 ------- 1 2.0 1.0 25 151
- 3.162 2 1 ack 40 ------- 1 2.0 1.0 25 151
r 3.21216 2 1 ack 40 ------- 1 2.0 1.0 25 151
+ 3.21216 1 2 tcp 1040 ------- 1 1.0 2.0 26 152
- 3.21216 1 2 tcp 1040 ------- 1 1.0 2.0 26 152
r 3.26632 1 2 tcp 1040 ------- 1 1.0 2.0 26 152
+ 3.26632 2 1 ack 40 ------- 1 2.0 1.0 26 153
- 3.26632 2 1 ack 40 ------- 1 2.0 1.0 26 153
r 3.31648 2 1 ack 40 ------- 1 2.0 1.0 26 153
+ 3.31648 1 2 tcp 1040 ------- 1 1.0 2.0 27 154
- 3.31648 1 2 tcp 1040 ------- 1 1.0 2.0 27 154
r 3.37064 1 2 tcp 1040 ------- 1 1.0 2.0 27 154
+ 3.37064 2 1 ack 40 ------- 1 2.0 1.0 27 155
- 3.37064 2 1 ack 40 ------- 1 2.0 1.0 27 155
r 3.4208 2 1 ack 40 ------- 1 2.0 1.0 27 155
+ 3.4208 1 2 tcp 1040 ------- 1 1.0 2.0 28 156
- 3.4208 1 2 tcp 1040 ------- 1 1.0 2.0 28 156
r 3.47496 1 2 tcp 1040 ------- 1 1.0 2.0 28 156
+ 3.47496 2 1 ack 40 ------- 1 2.0 1.0 28 157
- 3.47496 2 1 ack 40 ------- 1 2.0 1.0 28 157
r 3.52512 2 1 ack 40 ------- 1 2.0 1.0 28 157
+ 3.52512 1 2 tcp 1040 ------- 1 1.0 2.0 29 158
- 3.52512 1 2 tcp 1040 ------- 1 1.0 2.0 29 158
r 3.57928 1 2 tcp 1040 ------- 1 1.0 2.0 29 158
+ 3.57928 2 1 ack 40 ------- 1 2.0 1.0 29 159
- 3.57928 2 1 ack 40 ------- 1 2.0 1.0 29 159
r 3.62944 2 1 ack 40 ------- 1 2.0 1.0 29 159
+ 3.62944 1 2 tcp 1040 ------- 1 1.0 2.0 30 160
- 3.62944 1 2 tcp 1040 ------- 1 1.0 2.0 30 160
r 3.6836 1 2 tcp 1040 ------- 1 1.0 2.0 30 160
+ 3.6836 2 1 ack 40 ------- 1 2.0 1.0 30 161
- 3.6836 2 1 ack 40 ------- 1 2.0 1.0 30 161
r 3.73376 2 1 ack 40 ------- 1 2.0 1.0 30 161
+ 3.73376 1 2 tcp 1040 ------- 1 1.0 2.0 31 162
- 3.73376 1 2 tcp 1040 ------- 1 1.0 2.0 31 162
r 3.78792 1 2 tcp 1040 ------- 1 1.0 2.0 31 162
+ 3.78792 2 1 ack 40 ------- 1 2.0 1.0 31 163
- 3.78792 2 1 ack 40 ------- 1 2.0 1.0 31 163
r 3.83808 2 1 ack 40 ------- 1 2.0 1.0 31 163
+ 3.83808 1 2 tcp 1040 ------- 1 1.0 2.0 32 164
- 3.83808 1 2 tcp 1040 ------- 1 1.0 2.0 32 164
r 3.89224 1 2 tcp 1040 ------- 1 1.0 2.0 32 164
+ 3.89224 2 1 ack 40 ------- 1 2.0 1.0 32 165
- 3.89224 2 1 ack 40 ------- 1 2.0 1.0 32 165
r 3.9424 2 1 ack 40 ------- 1 2.0 1.0 32 165
+ 3.9424 1 2 tcp 1040 ------- 1 1.0 2.0 33 166
- 3.9424 1 2 tcp 1040 ------- 1 1.0 2.0 33 166
r 3.99656 1 2 tcp 1040 ------- 1 1.0 2.0 33 166
+ 3.99656 2 1 ack 40 ------- 1 2.0 1.0 33 167
- 3.99656 2 1 ack 40 ------- 1 2.0 1.0 33 167
r 4.04672 2 1 ack 40 ------- 1 2.0 1.0 33 167
+ 4.04672 1 2 tcp 1040 ------- 1 1.0 2.0 34 168
- 4.04672 1 2 tcp 1040 ------- 1 1.0 2.0 34 168
r 4.10088 1 2 tcp 1040 ------- 1 1.0 2.0 34 168
+ 4.10088 2 1 ack 40 ------- 1 2.0 1.0 34 169
- 4.10088 2 1 ack 40 ------- 1 2.0 1.0 34 169
r 4.15104 2 1 ack 40 ------- 1 2.0 1.0 34 169
+ 4.15104 1 2 tcp 1040 ------- 1 1.0 2.0 35 170
- 4.15104 1 2 tcp 1040 ------- 1 1.0 2.0 35 170
r 4.2052 1 2 tcp 1040 ------- 1 1.0 2.0 35 170
+ 4.2052 2 1 ack 40 ------- 1 2.0 1.0 35 171
- 4.2052 2 1 ack 40 ------- 1 2.0 1.0 35 171
r 4.25536 2 1 ack 40 ------- 1 2.0 1.0 35 171
+ 4.25536 1 2 tcp 1040 ------- 1 1.0 2.0 36 172
- 4.25536 1 2 tcp 1040 ------- 1 1.0 2.0 36 172
r 4.30952 1 2 tcp 1040 ------- 1 1.0 2.0 36 172
+ 4.30952 2 1 ack 40 ------- 1 2.0 1.0 36 173
- 4.30952 2 1 ack 40 ------- 1 2.0 1.0 36 173
r 4.35968 2 1 ack 40 ------- 1 2.0 1.0 36 173
+ 4.35968 1 2 tcp 1040 ------- 1 1.0 2.0 37 174
- 4.35968 1 2 tcp 1040 ------- 1 1.0 2.0 37 174
r 4.41384 1 2 tcp 1040 ------- 1 1.0 2.0 37 174
+ 4.41384 2 1 ack 40 ------- 1 2.0 1.0 37 175
- 4.41384 2 1 ack 40 ------- 1 2.0 1.0 37 175
r 4.464 2 1 ack 40 ------- 1 2.0 1.0 37 175
+ 4.464 1 2 tcp 1040 ------- 1 1.0 2.0 38 176
- 4.464 1 2 tcp 1040 ------- 1 1.0 2.0 38 176
r 4.51816 1 2 tcp 1040 ------- 1 1.0 2.0 38 176
+ 4.51816 2 1 ack 40 ------- 1 2.0 1.0 38 177
- 4.51816 2 1 ack 40 ------- 1 2.0 1.0 38 177
r 4.56832 2 1 ack 40 ------- 1 2.0 1.0 38 177
+ 4.56832 1 2 tcp 1040 ------- 1 1.0 2.0 39 178
- 4.56832 1 2 tcp 1040 ------- 1 1.0 2.0 39 178
r 4.62248 1 2 tcp 1040 ------- 1 1.0 2.0 39 178
+ 4.62248 2 1 ack 40 ------- 1 2.0 1.0 39 179
- 4.62248 2 1 ack 40 ------- 1 2.0 1.0 39 179
r 4.67264 2 1 ack 40 ------- 1 2.0 1.0 39 179
+ 4.67264 1 2 tcp 1040 ------- 1 1.0 2.0 40 180
- 4.67264 1 2 tcp 1040 ------- 1 1.0 2.0 40 180
r 4.7268 1 2 tcp 1040 ------- 1 1.0 2.0 40 180
+ 4.7268 2 1 ack 40 ------- 1 2.0 1.0 40 181
- 4.7268 2 1 ack 40 ------- 1 2.0 1.0 40 181
r 4.77696 2 1 ack 40 ------- 1 2.0 1.0 40 181
+ 4.77696 1 2 tcp 1040 ------- 1 1.0 2.0 41 182
- 4.77696 1 2 tcp 1040 ------- 1 1.0 2.0 41 182
r 4.83112 1 2 tcp 1040 ------- 1 1.0 2.0 41 182
+ 4.83112 2 1 ack 40 ------- 1 2.0 1.0 41 183
- 4.83112 2 1 ack 40 ------- 1 2.0 1.0 41 183
r 4.88128 2 1 ack 40 ------- 1 2.0 1.0 41 183
+ 4.88128 1 2 tcp 1040 ------- 1 1.0 2.0 42 184
- 4.88128 1 2 tcp 1040 ------- 1 1.0 2.0 42 184
r 4.93544 1 2 tcp 1040 ------- 1 1.0 2.0 42 184
+ 4.93544 2 1 ack 40 ------- 1 2.0 1.0 42 185
- 4.93544 2 1 ack 40 ------- 1 2.0 1.0 42 185
r 4.9856 2 1 ack 40 ------- 1 2.0 1.0 42 185
+ 4.9856 1 2 tcp 1040 ------- 1 1.0 2.0 43 186
- 4.9856 1 2 tcp 1040 ------- 1 1.0 2.0 43 186
r 5.03976 1 2 tcp 1040 ------- 1 1.0 2.0 43 186
+ 5.03976 2 1 ack 40 ------- 1 2.0 1.0 43 187
- 5.03976 2 1 ack 40 ------- 1 2.0 1.0 43 187
r 5.08992 2 1 ack 40 ------- 1 2.0 1.0 43 187
+ 5.08992 1 2 tcp 1040 ------- 1 1.0 2.0 44 188
- 5.08992 1 2 tcp 1040 ------- 1 1.0 2.0 44 188
r 5.14408 1 2 tcp 1040 ------- 1 1.0 2.0 44 188
+ 5.14408 2 1 ack 40 ------- 1 2.0 1.0 44 189
- 5.14408 2 1 ack 40 ------- 1 2.0 1.0 44 189
r 5.19424 2 1 ack 40 ------- 1 2.0 1.0 44 189
+ 5.19424 1 2 tcp 1040 ------- 1 1.0 2.0 45 190
- 5.19424 1 2 tcp 1040 ------- 1 1.0 2.0 45 190
r 5.2484 1 2 tcp 1040 ------- 1 1.0 2.0 45 190
+ 5.2484 2 1 ack 40 ------- 1 2.0 1.0 45 191
- 5.2484 2 1 ack 40 ------- 1 2.0 1.0 45 191
r 5.29856 2 1 ack 40 ------- 1 2.0 1.0 45 191
+ 5.29856 1 2 tcp 1040 ------- 1 1.0 2.0 46 192
- 5.29856 1 2 tcp 1040 ------- 1 1.0 2.0 46 192
r 5.35272 1 2 tcp 1040 ------- 1 1.0 2.0 46 192
+ 5.35272 2 1 ack 40 ------- 1 2.0 1.0 46 193
- 5.35272 2 1 ack 40 ------- 1 2.0 1.0 46 193
r 5.40288 2 1 ack 40 ------- 1 2.0 1.0 46 193
+ 5.40288 1 2 tcp 1040 ------- 1 1.0 2.0 47 194
- 5.40288 1 2 tcp 1040 ------- 1 1.0 2.0 47 194
r 5.45704 1 2 tcp 1040 ------- 1 1.0 2.0 47 194
+ 5.45704 2 1 ack 40 ------- 1 2.0 1.0 47 195
- 5.45704 2 1 ack 40 ------- 1 2.0 1.0 47 195
r 5.5072 2 1 ack 40 ------- 1 2.0 1.0 47 195
+ 5.5072 1 2 tcp 1040 ------- 1 1.0 2.0 48 196
- 5.5072 1 2 tcp 1040 ------- 1 1.0 2.0 48 196
r 5.56136 1 2 tcp 1040 ------- 1 1.0 2.0 48 196
+ 5.56136 2 1 ack 40 ------- 1 2.0 1.0 48 197
- 5.56136 2 1 ack 40 ------- 1 2.0 1.0 48 197
r 5.61152 2 1 ack 40 ------- 1 2.0 1.0 48 197
+ 5.61152 1 2 tcp 1040 ------- 1 1.0 2.0 49 198
- 5.61152 1 2 tcp 1040 ------- 1 1.0 2.0 49 198
r 5.66568 1 2 tcp 1040 ------- 1 1.0 2.0 49 198
+ 5.66568 2 1 ack 40 ------- 1 2.0 1.0 49 199
- 5.66568 2 1 ack 40 ------- 1 2.0 1.0 49 199
r 5.71584 2 1 ack 40 ------- 1 2.0 1.0 49 199
