V -t * -v 1.0a5 -a 0
A -t * -n 1 -p 0 -o 0x7fffffff -c 30 -a 1
A -t * -h 1 -m 1073741823 -s 0
n -t * -a 0 -s 0 -S UP -v circle -c black -i black
n -t * -a 1 -s 1 -S UP -v circle -c black -i black
l -t * -s 0 -d 1 -S UP -r 10000000 -D 0.01 -c black
+ -t 1 -s 0 -d 1 -p cbr -e 1000 -c 0 -i 0 -a 0 -x {0.0 1.0 0 ------- null}
- -t 1 -s 0 -d 1 -p cbr -e 1000 -c 0 -i 0 -a 0 -x {0.0 1.0 0 ------- null}
h -t 1 -s 0 -d 1 -p cbr -e 1000 -c 0 -i 0 -a 0 -x {0.0 1.0 -1 ------- null}
+ -t 1 -s 0 -d 1 -p cbr -e 500 -c 0 -i 1 -a 0 -x {0.0 1.0 1 ------- null}
- -t 1.0008 -s 0 -d 1 -p cbr -e 500 -c 0 -i 1 -a 0 -x {0.0 1.0 1 ------- null}
h -t 1.0008 -s 0 -d 1 -p cbr -e 500 -c 0 -i 1 -a 0 -x {0.0 1.0 -1 ------- null}
+ -t 1.01 -s 0 -d 1 -p cbr -e 1000 -c 0 -i 2 -a 0 -x {0.0 1.0 2 ------- null}
- -t 1.01 -s 0 -d 1 -p cbr -e 1000 -c 0 -i 2 -a 0 -x {0.0 1.0 2 ------- null}
h -t 1.01 -s 0 -d 1 -p cbr -e 1000 -c 0 -i 2 -a 0 -x {0.0 1.0 -1 ------- null}
+ -t 1.01 -s 0 -d 1 -p cbr -e 500 -c 0 -i 3 -a 0 -x {0.0 1.0 3 ------- null}
r -t 1.0108 -s 0 -d 1 -p cbr -e 1000 -c 0 -i 0 -a 0 -x {0.0 1.0 0 ------- null}
- -t 1.0108 -s 0 -d 1 -p cbr -e 500 -c 0 -i 3 -a 0 -x {0.0 1.0 3 ------- null}
h -t 1.0108 -s 0 -d 1 -p cbr -e 500 -c 0 -i 3 -a 0 -x {0.0 1.0 -1 ------- null}
r -t 1.0112 -s 0 -d 1 -p cbr -e 500 -c 0 -i 1 -a 0 -x {0.0 1.0 1 ------- null}
+ -t 1.02 -s 0 -d 1 -p cbr -e 1000 -c 0 -i 4 -a 0 -x {0.0 1.0 4 ------- null}
- -t 1.02 -s 0 -d 1 -p cbr -e 1000 -c 0 -i 4 -a 0 -x {0.0 1.0 4 ------- null}
h -t 1.02 -s 0 -d 1 -p cbr -e 1000 -c 0 -i 4 -a 0 -x {0.0 1.0 -1 ------- null}
+ -t 1.02 -s 0 -d 1 -p cbr -e 500 -c 0 -i 5 -a 0 -x {0.0 1.0 5 ------- null}
r -t 1.0208 -s 0 -d 1 -p cbr -e 1000 -c 0 -i 2 -a 0 -x {0.0 1.0 2 ------- null}
- -t 1.0208 -s 0 -d 1 -p cbr -e 500 -c 0 -i 5 -a 0 -x {0.0 1.0 5 ------- null}
h -t 1.0208 -s 0 -d 1 -p cbr -e 500 -c 0 -i 5 -a 0 -x {0.0 1.0 -1 ------- null}
r -t 1.0212 -s 0 -d 1 -p cbr -e 500 -c 0 -i 3 -a 0 -x {0.0 1.0 3 ------- null}
+ -t 1.03 -s 0 -d 1 -p cbr -e 1000 -c 0 -i 6 -a 0 -x {0.0 1.0 6 ------- null}
- -t 1.03 -s 0 -d 1 -p cbr -e 1000 -c 0 -i 6 -a 0 -x {0.0 1.0 6 ------- null}
h -t 1.03 -s 0 -d 1 -p cbr -e 1000 -c 0 -i 6 -a 0 -x {0.0 1.0 -1 ------- null}
+ -t 1.03 -s 0 -d 1 -p cbr -e 500 -c 0 -i 7 -a 0 -x {0.0 1.0 7 ------- null}
r -t 1.0308 -s 0 -d 1 -p cbr -e 1000 -c 0 -i 4 -a 0 -x {0.0 1.0 4 ------- null}
- -t 1.0308 -s 0 -d 1 -p cbr -e 500 -c 0 -i 7 -a 0 -x {0.0 1.0 7 ------- null}
h -t 1.0308 -s 0 -d 1 -p cbr -e 500 -c 0 -i 7 -a 0 -x {0.0 1.0 -1 ------- null}
r -t 1.0312 -s 0 -d 1 -p cbr -e 500 -c 0 -i 5 -a 0 -x {0.0 1.0 5 ------- null}
+ -t 1.04 -s 0 -d 1 -p cbr -e 1000 -c 0 -i 8 -a 0 -x {0.0 1.0 8 ------- null}
- -t 1.04 -s 0 -d 1 -p cbr -e 1000 -c 0 -i 8 -a 0 -x {0.0 1.0 8 ------- null}
h -t 1.04 -s 0 -d 1 -p cbr -e 1000 -c 0 -i 8 -a 0 -x {0.0 1.0 -1 ------- null}
+ -t 1.04 -s 0 -d 1 -p cbr -e 500 -c 0 -i 9 -a 0 -x {0.0 1.0 9 ------- null}
r -t 1.0408 -s 0 -d 1 -p cbr -e 1000 -c 0 -i 6 -a 0 -x {0.0 1.0 6 ------- null}
- -t 1.0408 -s 0 -d 1 -p cbr -e 500 -c 0 -i 9 -a 0 -x {0.0 1.0 9 ------- null}
h -t 1.0408 -s 0 -d 1 -p cbr -e 500 -c 0 -i 9 -a 0 -x {0.0 1.0 -1 ------- null}
r -t 1.0412 -s 0 -d 1 -p cbr -e 500 -c 0 -i 7 -a 0 -x {0.0 1.0 7 ------- null}
+ -t 1.05 -s 0 -d 1 -p cbr -e 1000 -c 0 -i 10 -a 0 -x {0.0 1.0 10 ------- null}
- -t 1.05 -s 0 -d 1 -p cbr -e 1000 -c 0 -i 10 -a 0 -x {0.0 1.0 10 ------- null}
h -t 1.05 -s 0 -d 1 -p cbr -e 1000 -c 0 -i 10 -a 0 -x {0.0 1.0 -1 ------- null}
+ -t 1.05 -s 0 -d 1 -p cbr -e 500 -c 0 -i 11 -a 0 -x {0.0 1.0 11 ------- null}
r -t 1.0508 -s 0 -d 1 -p cbr -e 1000 -c 0 -i 8 -a 0 -x {0.0 1.0 8 ------- null}
- -t 1.0508 -s 0 -d 1 -p cbr -e 500 -c 0 -i 11 -a 0 -x {0.0 1.0 11 ------- null}
h -t 1.0508 -s 0 -d 1 -p cbr -e 500 -c 0 -i 11 -a 0 -x {0.0 1.0 -1 ------- null}
r -t 1.0512 -s 0 -d 1 -p cbr -e 500 -c 0 -i 9 -a 0 -x {0.0 1.0 9 ------- null}
+ -t 1.06 -s 0 -d 1 -p cbr -e 1000 -c 0 -i 12 -a 0 -x {0.0 1.0 12 ------- null}
- -t 1.06 -s 0 -d 1 -p cbr -e 1000 -c 0 -i 12 -a 0 -x {0.0 1.0 12 ------- null}
h -t 1.06 -s 0 -d 1 -p cbr -e 1000 -c 0 -i 12 -a 0 -x {0.0 1.0 -1 ------- null}
+ -t 1.06 -s 0 -d 1 -p cbr -e 500 -c 0 -i 13 -a 0 -x {0.0 1.0 13 ------- null}
r -t 1.0608 -s 0 -d 1 -p cbr -e 1000 -c 0 -i 10 -a 0 -x {0.0 1.0 10 ------- null}
- -t 1.0608 -s 0 -d 1 -p cbr -e 500 -c 0 -i 13 -a 0 -x {0.0 1.0 13 ------- null}
h -t 1.0608 -s 0 -d 1 -p cbr -e 500 -c 0 -i 13 -a 0 -x {0.0 1.0 -1 ------- null}
r -t 1.0612 -s 0 -d 1 -p cbr -e 500 -c 0 -i 11 -a 0 -x {0.0 1.0 11 ------- null}
+ -t 1.07 -s 0 -d 1 -p cbr -e 1000 -c 0 -i 14 -a 0 -x {0.0 1.0 14 ------- null}
- -t 1.07 -s 0 -d 1 -p cbr -e 1000 -c 0 -i 14 -a 0 -x {0.0 1.0 14 ------- null}
h -t 1.07 -s 0 -d 1 -p cbr -e 1000 -c 0 -i 14 -a 0 -x {0.0 1.0 -1 ------- null}
+ -t 1.07 -s 0 -d 1 -p cbr -e 500 -c 0 -i 15 -a 0 -x {0.0 1.0 15 ------- null}
r -t 1.0708 -s 0 -d 1 -p cbr -e 1000 -c 0 -i 12 -a 0 -x {0.0 1.0 12 ------- null}
- -t 1.0708 -s 0 -d 1 -p cbr -e 500 -c 0 -i 15 -a 0 -x {0.0 1.0 15 ------- null}
h -t 1.0708 -s 0 -d 1 -p cbr -e 500 -c 0 -i 15 -a 0 -x {0.0 1.0 -1 ------- null}
r -t 1.0712 -s 0 -d 1 -p cbr -e 500 -c 0 -i 13 -a 0 -x {0.0 1.0 13 ------- null}
+ -t 1.08 -s 0 -d 1 -p cbr -e 1000 -c 0 -i 16 -a 0 -x {0.0 1.0 16 ------- null}
- -t 1.08 -s 0 -d 1 -p cbr -e 1000 -c 0 -i 16 -a 0 -x {0.0 1.0 16 ------- null}
h -t 1.08 -s 0 -d 1 -p cbr -e 1000 -c 0 -i 16 -a 0 -x {0.0 1.0 -1 ------- null}
+ -t 1.08 -s 0 -d 1 -p cbr -e 500 -c 0 -i 17 -a 0 -x {0.0 1.0 17 ------- null}
r -t 1.0808 -s 0 -d 1 -p cbr -e 1000 -c 0 -i 14 -a 0 -x {0.0 1.0 14 ------- null}
- -t 1.0808 -s 0 -d 1 -p cbr -e 500 -c 0 -i 17 -a 0 -x {0.0 1.0 17 ------- null}
h -t 1.0808 -s 0 -d 1 -p cbr -e 500 -c 0 -i 17 -a 0 -x {0.0 1.0 -1 ------- null}
r -t 1.0812 -s 0 -d 1 -p cbr -e 500 -c 0 -i 15 -a 0 -x {0.0 1.0 15 ------- null}
+ -t 1.09 -s 0 -d 1 -p cbr -e 1000 -c 0 -i 18 -a 0 -x {0.0 1.0 18 ------- null}
- -t 1.09 -s 0 -d 1 -p cbr -e 1000 -c 0 -i 18 -a 0 -x {0.0 1.0 18 ------- null}
h -t 1.09 -s 0 -d 1 -p cbr -e 1000 -c 0 -i 18 -a 0 -x {0.0 1.0 -1 ------- null}
+ -t 1.09 -s 0 -d 1 -p cbr -e 500 -c 0 -i 19 -a 0 -x {0.0 1.0 19 ------- null}
r -t 1.0908 -s 0 -d 1 -p cbr -e 1000 -c 0 -i 16 -a 0 -x {0.0 1.0 16 ------- null}
- -t 1.0908 -s 0 -d 1 -p cbr -e 500 -c 0 -i 19 -a 0 -x {0.0 1.0 19 ------- null}
h -t 1.0908 -s 0 -d 1 -p cbr -e 500 -c 0 -i 19 -a 0 -x {0.0 1.0 -1 ------- null}
r -t 1.0912 -s 0 -d 1 -p cbr -e 500 -c 0 -i 17 -a 0 -x {0.0 1.0 17 ------- null}
+ -t 1.1 -s 0 -d 1 -p cbr -e 1000 -c 0 -i 20 -a 0 -x {0.0 1.0 20 ------- null}
- -t 1.1 -s 0 -d 1 -p cbr -e 1000 -c 0 -i 20 -a 0 -x {0.0 1.0 20 ------- null}
h -t 1.1 -s 0 -d 1 -p cbr -e 1000 -c 0 -i 20 -a 0 -x {0.0 1.0 -1 ------- null}
+ -t 1.1 -s 0 -d 1 -p cbr -e 500 -c 0 -i 21 -a 0 -x {0.0 1.0 21 ------- null}
r -t 1.1008 -s 0 -d 1 -p cbr -e 1000 -c 0 -i 18 -a 0 -x {0.0 1.0 18 ------- null}
- -t 1.1008 -s 0 -d 1 -p cbr -e 500 -c 0 -i 21 -a 0 -x {0.0 1.0 21 ------- null}
h -t 1.1008 -s 0 -d 1 -p cbr -e 500 -c 0 -i 21 -a 0 -x {0.0 1.0 -1 ------- null}
r -t 1.1012 -s 0 -d 1 -p cbr -e 500 -c 0 -i 19 -a 0 -x {0.0 1.0 19 ------- null}
+ -t 1.11 -s 0 -d 1 -p cbr -e 1000 -c 0 -i 22 -a 0 -x {0.0 1.0 22 ------- null}
- -t 1.11 -s 0 -d 1 -p cbr -e 1000 -c 0 -i 22 -a 0 -x {0.0 1.0 22 ------- null}
h -t 1.11 -s 0 -d 1 -p cbr -e 1000 -c 0 -i 22 -a 0 -x {0.0 1.0 -1 ------- null}
+ -t 1.11 -s 0 -d 1 -p cbr -e 500 -c 0 -i 23 -a 0 -x {0.0 1.0 23 ------- null}
r -t 1.1108 -s 0 -d 1 -p cbr -e 1000 -c 0 -i 20 -a 0 -x {0.0 1.0 20 ------- null}
- -t 1.1108 -s 0 -d 1 -p cbr -e 500 -c 0 -i 23 -a 0 -x {0.0 1.0 23 ------- null}
h -t 1.1108 -s 0 -d 1 -p cbr -e 500 -c 0 -i 23 -a 0 -x {0.0 1.0 -1 ------- null}
r -t 1.1112 -s 0 -d 1 -p cbr -e 500 -c 0 -i 21 -a 0 -x {0.0 1.0 21 ------- null}
+ -t 1.12 -s 0 -d 1 -p cbr -e 1000 -c 0 -i 24 -a 0 -x {0.0 1.0 24 ------- null}
- -t 1.12 -s 0 -d 1 -p cbr -e 1000 -c 0 -i 24 -a 0 -x {0.0 1.0 24 ------- null}
h -t 1.12 -s 0 -d 1 -p cbr -e 1000 -c 0 -i 24 -a 0 -x {0.0 1.0 -1 ------- null}
+ -t 1.12 -s 0 -d 1 -p cbr -e 500 -c 0 -i 25 -a 0 -x {0.0 1.0 25 ------- null}
r -t 1.1208 -s 0 -d 1 -p cbr -e 1000 -c 0 -i 22 -a 0 -x {0.0 1.0 22 ------- null}
- -t 1.1208 -s 0 -d 1 -p cbr -e 500 -c 0 -i 25 -a 0 -x {0.0 1.0 25 ------- null}
h -t 1.1208 -s 0 -d 1 -p cbr -e 500 -c 0 -i 25 -a 0 -x {0.0 1.0 -1 ------- null}
r -t 1.1212 -s 0 -d 1 -p cbr -e 500 -c 0 -i 23 -a 0 -x {0.0 1.0 23 ------- null}
+ -t 1.13 -s 0 -d 1 -p cbr -e 1000 -c 0 -i 26 -a 0 -x {0.0 1.0 26 ------- null}
- -t 1.13 -s 0 -d 1 -p cbr -e 1000 -c 0 -i 26 -a 0 -x {0.0 1.0 26 ------- null}
h -t 1.13 -s 0 -d 1 -p cbr -e 1000 -c 0 -i 26 -a 0 -x {0.0 1.0 -1 ------- null}
+ -t 1.13 -s 0 -d 1 -p cbr -e 500 -c 0 -i 27 -a 0 -x {0.0 1.0 27 ------- null}
r -t 1.1308 -s 0 -d 1 -p cbr -e 1000 -c 0 -i 24 -a 0 -x {0.0 1.0 24 ------- null}
- -t 1.1308 -s 0 -d 1 -p cbr -e 500 -c 0 -i 27 -a 0 -x {0.0 1.0 27 ------- null}
h -t 1.1308 -s 0 -d 1 -p cbr -e 500 -c 0 -i 27 -a 0 -x {0.0 1.0 -1 ------- null}
r -t 1.1312 -s 0 -d 1 -p cbr -e 500 -c 0 -i 25 -a 0 -x {0.0 1.0 25 ------- null}
+ -t 1.14 -s 0 -d 1 -p cbr -e 1000 -c 0 -i 28 -a 0 -x {0.0 1.0 28 ------- null}
- -t 1.14 -s 0 -d 1 -p cbr -e 1000 -c 0 -i 28 -a 0 -x {0.0 1.0 28 ------- null}
h -t 1.14 -s 0 -d 1 -p cbr -e 1000 -c 0 -i 28 -a 0 -x {0.0 1.0 -1 ------- null}
+ -t 1.14 -s 0 -d 1 -p cbr -e 500 -c 0 -i 29 -a 0 -x {0.0 1.0 29 ------- null}
r -t 1.1408 -s 0 -d 1 -p cbr -e 1000 -c 0 -i 26 -a 0 -x {0.0 1.0 26 ------- null}
- -t 1.1408 -s 0 -d 1 -p cbr -e 500 -c 0 -i 29 -a 0 -x {0.0 1.0 29 ------- null}
h -t 1.1408 -s 0 -d 1 -p cbr -e 500 -c 0 -i 29 -a 0 -x {0.0 1.0 -1 ------- null}
r -t 1.1412 -s 0 -d 1 -p cbr -e 500 -c 0 -i 27 -a 0 -x {0.0 1.0 27 ------- null}
+ -t 1.15 -s 0 -d 1 -p cbr -e 1000 -c 0 -i 30 -a 0 -x {0.0 1.0 30 ------- null}
- -t 1.15 -s 0 -d 1 -p cbr -e 1000 -c 0 -i 30 -a 0 -x {0.0 1.0 30 ------- null}
h -t 1.15 -s 0 -d 1 -p cbr -e 1000 -c 0 -i 30 -a 0 -x {0.0 1.0 -1 ------- null}
+ -t 1.15 -s 0 -d 1 -p cbr -e 500 -c 0 -i 31 -a 0 -x {0.0 1.0 31 ------- null}
r -t 1.1508 -s 0 -d 1 -p cbr -e 1000 -c 0 -i 28 -a 0 -x {0.0 1.0 28 ------- null}
- -t 1.1508 -s 0 -d 1 -p cbr -e 500 -c 0 -i 31 -a 0 -x {0.0 1.0 31 ------- null}
h -t 1.1508 -s 0 -d 1 -p cbr -e 500 -c 0 -i 31 -a 0 -x {0.0 1.0 -1 ------- null}
r -t 1.1512 -s 0 -d 1 -p cbr -e 500 -c 0 -i 29 -a 0 -x {0.0 1.0 29 ------- null}
+ -t 1.16 -s 0 -d 1 -p cbr -e 1000 -c 0 -i 32 -a 0 -x {0.0 1.0 32 ------- null}
- -t 1.16 -s 0 -d 1 -p cbr -e 1000 -c 0 -i 32 -a 0 -x {0.0 1.0 32 ------- null}
h -t 1.16 -s 0 -d 1 -p cbr -e 1000 -c 0 -i 32 -a 0 -x {0.0 1.0 -1 ------- null}
+ -t 1.16 -s 0 -d 1 -p cbr -e 500 -c 0 -i 33 -a 0 -x {0.0 1.0 33 ------- null}
r -t 1.1608 -s 0 -d 1 -p cbr -e 1000 -c 0 -i 30 -a 0 -x {0.0 1.0 30 ------- null}
- -t 1.1608 -s 0 -d 1 -p cbr -e 500 -c 0 -i 33 -a 0 -x {0.0 1.0 33 ------- null}
h -t 1.1608 -s 0 -d 1 -p cbr -e 500 -c 0 -i 33 -a 0 -x {0.0 1.0 -1 ------- null}
r -t 1.1612 -s 0 -d 1 -p cbr -e 500 -c 0 -i 31 -a 0 -x {0.0 1.0 31 ------- null}
+ -t 1.17 -s 0 -d 1 -p cbr -e 1000 -c 0 -i 34 -a 0 -x {0.0 1.0 34 ------- null}
- -t 1.17 -s 0 -d 1 -p cbr -e 1000 -c 0 -i 34 -a 0 -x {0.0 1.0 34 ------- null}
h -t 1.17 -s 0 -d 1 -p cbr -e 1000 -c 0 -i 34 -a 0 -x {0.0 1.0 -1 ------- null}
+ -t 1.17 -s 0 -d 1 -p cbr -e 500 -c 0 -i 35 -a 0 -x {0.0 1.0 35 ------- null}
r -t 1.1708 -s 0 -d 1 -p cbr -e 1000 -c 0 -i 32 -a 0 -x {0.0 1.0 32 ------- null}
- -t 1.1708 -s 0 -d 1 -p cbr -e 500 -c 0 -i 35 -a 0 -x {0.0 1.0 35 ------- null}
h -t 1.1708 -s 0 -d 1 -p cbr -e 500 -c 0 -i 35 -a 0 -x {0.0 1.0 -1 ------- null}
r -t 1.1712 -s 0 -d 1 -p cbr -e 500 -c 0 -i 33 -a 0 -x {0.0 1.0 33 ------- null}
+ -t 1.18 -s 0 -d 1 -p cbr -e 1000 -c 0 -i 36 -a 0 -x {0.0 1.0 36 ------- null}
- -t 1.18 -s 0 -d 1 -p cbr -e 1000 -c 0 -i 36 -a 0 -x {0.0 1.0 36 ------- null}
h -t 1.18 -s 0 -d 1 -p cbr -e 1000 -c 0 -i 36 -a 0 -x {0.0 1.0 -1 ------- null}
+ -t 1.18 -s 0 -d 1 -p cbr -e 500 -c 0 -i 37 -a 0 -x {0.0 1.0 37 ------- null}
r -t 1.1808 -s 0 -d 1 -p cbr -e 1000 -c 0 -i 34 -a 0 -x {0.0 1.0 34 ------- null}
- -t 1.1808 -s 0 -d 1 -p cbr -e 500 -c 0 -i 37 -a 0 -x {0.0 1.0 37 ------- null}
h -t 1.1808 -s 0 -d 1 -p cbr -e 500 -c 0 -i 37 -a 0 -x {0.0 1.0 -1 ------- null}
r -t 1.1812 -s 0 -d 1 -p cbr -e 500 -c 0 -i 35 -a 0 -x {0.0 1.0 35 ------- null}
+ -t 1.19 -s 0 -d 1 -p cbr -e 1000 -c 0 -i 38 -a 0 -x {0.0 1.0 38 ------- null}
- -t 1.19 -s 0 -d 1 -p cbr -e 1000 -c 0 -i 38 -a 0 -x {0.0 1.0 38 ------- null}
h -t 1.19 -s 0 -d 1 -p cbr -e 1000 -c 0 -i 38 -a 0 -x {0.0 1.0 -1 ------- null}
+ -t 1.19 -s 0 -d 1 -p cbr -e 500 -c 0 -i 39 -a 0 -x {0.0 1.0 39 ------- null}
r -t 1.1908 -s 0 -d 1 -p cbr -e 1000 -c 0 -i 36 -a 0 -x {0.0 1.0 36 ------- null}
- -t 1.1908 -s 0 -d 1 -p cbr -e 500 -c 0 -i 39 -a 0 -x {0.0 1.0 39 ------- null}
h -t 1.1908 -s 0 -d 1 -p cbr -e 500 -c 0 -i 39 -a 0 -x {0.0 1.0 -1 ------- null}
r -t 1.1912 -s 0 -d 1 -p cbr -e 500 -c 0 -i 37 -a 0 -x {0.0 1.0 37 ------- null}
+ -t 1.2 -s 0 -d 1 -p cbr -e 1000 -c 0 -i 40 -a 0 -x {0.0 1.0 40 ------- null}
- -t 1.2 -s 0 -d 1 -p cbr -e 1000 -c 0 -i 40 -a 0 -x {0.0 1.0 40 ------- null}
h -t 1.2 -s 0 -d 1 -p cbr -e 1000 -c 0 -i 40 -a 0 -x {0.0 1.0 -1 ------- null}
+ -t 1.2 -s 0 -d 1 -p cbr -e 500 -c 0 -i 41 -a 0 -x {0.0 1.0 41 ------- null}
r -t 1.2008 -s 0 -d 1 -p cbr -e 1000 -c 0 -i 38 -a 0 -x {0.0 1.0 38 ------- null}
- -t 1.2008 -s 0 -d 1 -p cbr -e 500 -c 0 -i 41 -a 0 -x {0.0 1.0 41 ------- null}
h -t 1.2008 -s 0 -d 1 -p cbr -e 500 -c 0 -i 41 -a 0 -x {0.0 1.0 -1 ------- null}
r -t 1.2012 -s 0 -d 1 -p cbr -e 500 -c 0 -i 39 -a 0 -x {0.0 1.0 39 ------- null}
+ -t 1.21 -s 0 -d 1 -p cbr -e 1000 -c 0 -i 42 -a 0 -x {0.0 1.0 42 ------- null}
- -t 1.21 -s 0 -d 1 -p cbr -e 1000 -c 0 -i 42 -a 0 -x {0.0 1.0 42 ------- null}
h -t 1.21 -s 0 -d 1 -p cbr -e 1000 -c 0 -i 42 -a 0 -x {0.0 1.0 -1 ------- null}
+ -t 1.21 -s 0 -d 1 -p cbr -e 500 -c 0 -i 43 -a 0 -x {0.0 1.0 43 ------- null}
r -t 1.2108 -s 0 -d 1 -p cbr -e 1000 -c 0 -i 40 -a 0 -x {0.0 1.0 40 ------- null}
- -t 1.2108 -s 0 -d 1 -p cbr -e 500 -c 0 -i 43 -a 0 -x {0.0 1.0 43 ------- null}
h -t 1.2108 -s 0 -d 1 -p cbr -e 500 -c 0 -i 43 -a 0 -x {0.0 1.0 -1 ------- null}
r -t 1.2112 -s 0 -d 1 -p cbr -e 500 -c 0 -i 41 -a 0 -x {0.0 1.0 41 ------- null}
+ -t 1.22 -s 0 -d 1 -p cbr -e 1000 -c 0 -i 44 -a 0 -x {0.0 1.0 44 ------- null}
- -t 1.22 -s 0 -d 1 -p cbr -e 1000 -c 0 -i 44 -a 0 -x {0.0 1.0 44 ------- null}
h -t 1.22 -s 0 -d 1 -p cbr -e 1000 -c 0 -i 44 -a 0 -x {0.0 1.0 -1 ------- null}
+ -t 1.22 -s 0 -d 1 -p cbr -e 500 -c 0 -i 45 -a 0 -x {0.0 1.0 45 ------- null}
r -t 1.2208 -s 0 -d 1 -p cbr -e 1000 -c 0 -i 42 -a 0 -x {0.0 1.0 42 ------- null}
- -t 1.2208 -s 0 -d 1 -p cbr -e 500 -c 0 -i 45 -a 0 -x {0.0 1.0 45 ------- null}
h -t 1.2208 -s 0 -d 1 -p cbr -e 500 -c 0 -i 45 -a 0 -x {0.0 1.0 -1 ------- null}
r -t 1.2212 -s 0 -d 1 -p cbr -e 500 -c 0 -i 43 -a 0 -x {0.0 1.0 43 ------- null}
+ -t 1.23 -s 0 -d 1 -p cbr -e 1000 -c 0 -i 46 -a 0 -x {0.0 1.0 46 ------- null}
- -t 1.23 -s 0 -d 1 -p cbr -e 1000 -c 0 -i 46 -a 0 -x {0.0 1.0 46 ------- null}
h -t 1.23 -s 0 -d 1 -p cbr -e 1000 -c 0 -i 46 -a 0 -x {0.0 1.0 -1 ------- null}
+ -t 1.23 -s 0 -d 1 -p cbr -e 500 -c 0 -i 47 -a 0 -x {0.0 1.0 47 ------- null}
r -t 1.2308 -s 0 -d 1 -p cbr -e 1000 -c 0 -i 44 -a 0 -x {0.0 1.0 44 ------- null}
- -t 1.2308 -s 0 -d 1 -p cbr -e 500 -c 0 -i 47 -a 0 -x {0.0 1.0 47 ------- null}
h -t 1.2308 -s 0 -d 1 -p cbr -e 500 -c 0 -i 47 -a 0 -x {0.0 1.0 -1 ------- null}
r -t 1.2312 -s 0 -d 1 -p cbr -e 500 -c 0 -i 45 -a 0 -x {0.0 1.0 45 ------- null}
+ -t 1.24 -s 0 -d 1 -p cbr -e 1000 -c 0 -i 48 -a 0 -x {0.0 1.0 48 ------- null}
- -t 1.24 -s 0 -d 1 -p cbr -e 1000 -c 0 -i 48 -a 0 -x {0.0 1.0 48 ------- null}
h -t 1.24 -s 0 -d 1 -p cbr -e 1000 -c 0 -i 48 -a 0 -x {0.0 1.0 -1 ------- null}
+ -t 1.24 -s 0 -d 1 -p cbr -e 500 -c 0 -i 49 -a 0 -x {0.0 1.0 49 ------- null}
r -t 1.2408 -s 0 -d 1 -p cbr -e 1000 -c 0 -i 46 -a 0 -x {0.0 1.0 46 ------- null}
- -t 1.2408 -s 0 -d 1 -p cbr -e 500 -c 0 -i 49 -a 0 -x {0.0 1.0 49 ------- null}
h -t 1.2408 -s 0 -d 1 -p cbr -e 500 -c 0 -i 49 -a 0 -x {0.0 1.0 -1 ------- null}
r -t 1.2412 -s 0 -d 1 -p cbr -e 500 -c 0 -i 47 -a 0 -x {0.0 1.0 47 ------- null}
+ -t 1.25 -s 0 -d 1 -p cbr -e 1000 -c 0 -i 50 -a 0 -x {0.0 1.0 50 ------- null}
- -t 1.25 -s 0 -d 1 -p cbr -e 1000 -c 0 -i 50 -a 0 -x {0.0 1.0 50 ------- null}
h -t 1.25 -s 0 -d 1 -p cbr -e 1000 -c 0 -i 50 -a 0 -x {0.0 1.0 -1 ------- null}
+ -t 1.25 -s 0 -d 1 -p cbr -e 500 -c 0 -i 51 -a 0 -x {0.0 1.0 51 ------- null}
r -t 1.2508 -s 0 -d 1 -p cbr -e 1000 -c 0 -i 48 -a 0 -x {0.0 1.0 48 ------- null}
- -t 1.2508 -s 0 -d 1 -p cbr -e 500 -c 0 -i 51 -a 0 -x {0.0 1.0 51 ------- null}
h -t 1.2508 -s 0 -d 1 -p cbr -e 500 -c 0 -i 51 -a 0 -x {0.0 1.0 -1 ------- null}
r -t 1.2512 -s 0 -d 1 -p cbr -e 500 -c 0 -i 49 -a 0 -x {0.0 1.0 49 ------- null}
+ -t 1.26 -s 0 -d 1 -p cbr -e 1000 -c 0 -i 52 -a 0 -x {0.0 1.0 52 ------- null}
- -t 1.26 -s 0 -d 1 -p cbr -e 1000 -c 0 -i 52 -a 0 -x {0.0 1.0 52 ------- null}
h -t 1.26 -s 0 -d 1 -p cbr -e 1000 -c 0 -i 52 -a 0 -x {0.0 1.0 -1 ------- null}
+ -t 1.26 -s 0 -d 1 -p cbr -e 500 -c 0 -i 53 -a 0 -x {0.0 1.0 53 ------- null}
r -t 1.2608 -s 0 -d 1 -p cbr -e 1000 -c 0 -i 50 -a 0 -x {0.0 1.0 50 ------- null}
- -t 1.2608 -s 0 -d 1 -p cbr -e 500 -c 0 -i 53 -a 0 -x {0.0 1.0 53 ------- null}
h -t 1.2608 -s 0 -d 1 -p cbr -e 500 -c 0 -i 53 -a 0 -x {0.0 1.0 -1 ------- null}
r -t 1.2612 -s 0 -d 1 -p cbr -e 500 -c 0 -i 51 -a 0 -x {0.0 1.0 51 ------- null}
+ -t 1.27 -s 0 -d 1 -p cbr -e 1000 -c 0 -i 54 -a 0 -x {0.0 1.0 54 ------- null}
- -t 1.27 -s 0 -d 1 -p cbr -e 1000 -c 0 -i 54 -a 0 -x {0.0 1.0 54 ------- null}
h -t 1.27 -s 0 -d 1 -p cbr -e 1000 -c 0 -i 54 -a 0 -x {0.0 1.0 -1 ------- null}
+ -t 1.27 -s 0 -d 1 -p cbr -e 500 -c 0 -i 55 -a 0 -x {0.0 1.0 55 ------- null}
r -t 1.2708 -s 0 -d 1 -p cbr -e 1000 -c 0 -i 52 -a 0 -x {0.0 1.0 52 ------- null}
- -t 1.2708 -s 0 -d 1 -p cbr -e 500 -c 0 -i 55 -a 0 -x {0.0 1.0 55 ------- null}
h -t 1.2708 -s 0 -d 1 -p cbr -e 500 -c 0 -i 55 -a 0 -x {0.0 1.0 -1 ------- null}
r -t 1.2712 -s 0 -d 1 -p cbr -e 500 -c 0 -i 53 -a 0 -x {0.0 1.0 53 ------- null}
+ -t 1.28 -s 0 -d 1 -p cbr -e 1000 -c 0 -i 56 -a 0 -x {0.0 1.0 56 ------- null}
- -t 1.28 -s 0 -d 1 -p cbr -e 1000 -c 0 -i 56 -a 0 -x {0.0 1.0 56 ------- null}
h -t 1.28 -s 0 -d 1 -p cbr -e 1000 -c 0 -i 56 -a 0 -x {0.0 1.0 -1 ------- null}
+ -t 1.28 -s 0 -d 1 -p cbr -e 500 -c 0 -i 57 -a 0 -x {0.0 1.0 57 ------- null}
r -t 1.2808 -s 0 -d 1 -p cbr -e 1000 -c 0 -i 54 -a 0 -x {0.0 1.0 54 ------- null}
- -t 1.2808 -s 0 -d 1 -p cbr -e 500 -c 0 -i 57 -a 0 -x {0.0 1.0 57 ------- null}
h -t 1.2808 -s 0 -d 1 -p cbr -e 500 -c 0 -i 57 -a 0 -x {0.0 1.0 -1 ------- null}
r -t 1.2812 -s 0 -d 1 -p cbr -e 500 -c 0 -i 55 -a 0 -x {0.0 1.0 55 ------- null}
+ -t 1.29 -s 0 -d 1 -p cbr -e 1000 -c 0 -i 58 -a 0 -x {0.0 1.0 58 ------- null}
- -t 1.29 -s 0 -d 1 -p cbr -e 1000 -c 0 -i 58 -a 0 -x {0.0 1.0 58 ------- null}
h -t 1.29 -s 0 -d 1 -p cbr -e 1000 -c 0 -i 58 -a 0 -x {0.0 1.0 -1 ------- null}
+ -t 1.29 -s 0 -d 1 -p cbr -e 500 -c 0 -i 59 -a 0 -x {0.0 1.0 59 ------- null}
r -t 1.2908 -s 0 -d 1 -p cbr -e 1000 -c 0 -i 56 -a 0 -x {0.0 1.0 56 ------- null}
- -t 1.2908 -s 0 -d 1 -p cbr -e 500 -c 0 -i 59 -a 0 -x {0.0 1.0 59 ------- null}
h -t 1.2908 -s 0 -d 1 -p cbr -e 500 -c 0 -i 59 -a 0 -x {0.0 1.0 -1 ------- null}
r -t 1.2912 -s 0 -d 1 -p cbr -e 500 -c 0 -i 57 -a 0 -x {0.0 1.0 57 ------- null}
+ -t 1.3 -s 0 -d 1 -p cbr -e 1000 -c 0 -i 60 -a 0 -x {0.0 1.0 60 ------- null}
- -t 1.3 -s 0 -d 1 -p cbr -e 1000 -c 0 -i 60 -a 0 -x {0.0 1.0 60 ------- null}
h -t 1.3 -s 0 -d 1 -p cbr -e 1000 -c 0 -i 60 -a 0 -x {0.0 1.0 -1 ------- null}
+ -t 1.3 -s 0 -d 1 -p cbr -e 500 -c 0 -i 61 -a 0 -x {0.0 1.0 61 ------- null}
r -t 1.3008 -s 0 -d 1 -p cbr -e 1000 -c 0 -i 58 -a 0 -x {0.0 1.0 58 ------- null}
- -t 1.3008 -s 0 -d 1 -p cbr -e 500 -c 0 -i 61 -a 0 -x {0.0 1.0 61 ------- null}
h -t 1.3008 -s 0 -d 1 -p cbr -e 500 -c 0 -i 61 -a 0 -x {0.0 1.0 -1 ------- null}
r -t 1.3012 -s 0 -d 1 -p cbr -e 500 -c 0 -i 59 -a 0 -x {0.0 1.0 59 ------- null}
+ -t 1.31 -s 0 -d 1 -p cbr -e 1000 -c 0 -i 62 -a 0 -x {0.0 1.0 62 ------- null}
- -t 1.31 -s 0 -d 1 -p cbr -e 1000 -c 0 -i 62 -a 0 -x {0.0 1.0 62 ------- null}
h -t 1.31 -s 0 -d 1 -p cbr -e 1000 -c 0 -i 62 -a 0 -x {0.0 1.0 -1 ------- null}
+ -t 1.31 -s 0 -d 1 -p cbr -e 500 -c 0 -i 63 -a 0 -x {0.0 1.0 63 ------- null}
r -t 1.3108 -s 0 -d 1 -p cbr -e 1000 -c 0 -i 60 -a 0 -x {0.0 1.0 60 ------- null}
- -t 1.3108 -s 0 -d 1 -p cbr -e 500 -c 0 -i 63 -a 0 -x {0.0 1.0 63 ------- null}
h -t 1.3108 -s 0 -d 1 -p cbr -e 500 -c 0 -i 63 -a 0 -x {0.0 1.0 -1 ------- null}
r -t 1.3112 -s 0 -d 1 -p cbr -e 500 -c 0 -i 61 -a 0 -x {0.0 1.0 61 ------- null}
+ -t 1.32 -s 0 -d 1 -p cbr -e 1000 -c 0 -i 64 -a 0 -x {0.0 1.0 64 ------- null}
- -t 1.32 -s 0 -d 1 -p cbr -e 1000 -c 0 -i 64 -a 0 -x {0.0 1.0 64 ------- null}
h -t 1.32 -s 0 -d 1 -p cbr -e 1000 -c 0 -i 64 -a 0 -x {0.0 1.0 -1 ------- null}
+ -t 1.32 -s 0 -d 1 -p cbr -e 500 -c 0 -i 65 -a 0 -x {0.0 1.0 65 ------- null}
r -t 1.3208 -s 0 -d 1 -p cbr -e 1000 -c 0 -i 62 -a 0 -x {0.0 1.0 62 ------- null}
- -t 1.3208 -s 0 -d 1 -p cbr -e 500 -c 0 -i 65 -a 0 -x {0.0 1.0 65 ------- null}
h -t 1.3208 -s 0 -d 1 -p cbr -e 500 -c 0 -i 65 -a 0 -x {0.0 1.0 -1 ------- null}
r -t 1.3212 -s 0 -d 1 -p cbr -e 500 -c 0 -i 63 -a 0 -x {0.0 1.0 63 ------- null}
+ -t 1.33 -s 0 -d 1 -p cbr -e 1000 -c 0 -i 66 -a 0 -x {0.0 1.0 66 ------- null}
- -t 1.33 -s 0 -d 1 -p cbr -e 1000 -c 0 -i 66 -a 0 -x {0.0 1.0 66 ------- null}
h -t 1.33 -s 0 -d 1 -p cbr -e 1000 -c 0 -i 66 -a 0 -x {0.0 1.0 -1 ------- null}
+ -t 1.33 -s 0 -d 1 -p cbr -e 500 -c 0 -i 67 -a 0 -x {0.0 1.0 67 ------- null}
r -t 1.3308 -s 0 -d 1 -p cbr -e 1000 -c 0 -i 64 -a 0 -x {0.0 1.0 64 ------- null}
- -t 1.3308 -s 0 -d 1 -p cbr -e 500 -c 0 -i 67 -a 0 -x {0.0 1.0 67 ------- null}
h -t 1.3308 -s 0 -d 1 -p cbr -e 500 -c 0 -i 67 -a 0 -x {0.0 1.0 -1 ------- null}
r -t 1.3312 -s 0 -d 1 -p cbr -e 500 -c 0 -i 65 -a 0 -x {0.0 1.0 65 ------- null}
+ -t 1.34 -s 0 -d 1 -p cbr -e 1000 -c 0 -i 68 -a 0 -x {0.0 1.0 68 ------- null}
- -t 1.34 -s 0 -d 1 -p cbr -e 1000 -c 0 -i 68 -a 0 -x {0.0 1.0 68 ------- null}
h -t 1.34 -s 0 -d 1 -p cbr -e 1000 -c 0 -i 68 -a 0 -x {0.0 1.0 -1 ------- null}
+ -t 1.34 -s 0 -d 1 -p cbr -e 500 -c 0 -i 69 -a 0 -x {0.0 1.0 69 ------- null}
r -t 1.3408 -s 0 -d 1 -p cbr -e 1000 -c 0 -i 66 -a 0 -x {0.0 1.0 66 ------- null}
- -t 1.3408 -s 0 -d 1 -p cbr -e 500 -c 0 -i 69 -a 0 -x {0.0 1.0 69 ------- null}
h -t 1.3408 -s 0 -d 1 -p cbr -e 500 -c 0 -i 69 -a 0 -x {0.0 1.0 -1 ------- null}
r -t 1.3412 -s 0 -d 1 -p cbr -e 500 -c 0 -i 67 -a 0 -x {0.0 1.0 67 ------- null}
+ -t 1.35 -s 0 -d 1 -p cbr -e 1000 -c 0 -i 70 -a 0 -x {0.0 1.0 70 ------- null}
- -t 1.35 -s 0 -d 1 -p cbr -e 1000 -c 0 -i 70 -a 0 -x {0.0 1.0 70 ------- null}
h -t 1.35 -s 0 -d 1 -p cbr -e 1000 -c 0 -i 70 -a 0 -x {0.0 1.0 -1 ------- null}
+ -t 1.35 -s 0 -d 1 -p cbr -e 500 -c 0 -i 71 -a 0 -x {0.0 1.0 71 ------- null}
r -t 1.3508 -s 0 -d 1 -p cbr -e 1000 -c 0 -i 68 -a 0 -x {0.0 1.0 68 ------- null}
- -t 1.3508 -s 0 -d 1 -p cbr -e 500 -c 0 -i 71 -a 0 -x {0.0 1.0 71 ------- null}
h -t 1.3508 -s 0 -d 1 -p cbr -e 500 -c 0 -i 71 -a 0 -x {0.0 1.0 -1 ------- null}
r -t 1.3512 -s 0 -d 1 -p cbr -e 500 -c 0 -i 69 -a 0 -x {0.0 1.0 69 ------- null}
+ -t 1.36 -s 0 -d 1 -p cbr -e 1000 -c 0 -i 72 -a 0 -x {0.0 1.0 72 ------- null}
- -t 1.36 -s 0 -d 1 -p cbr -e 1000 -c 0 -i 72 -a 0 -x {0.0 1.0 72 ------- null}
h -t 1.36 -s 0 -d 1 -p cbr -e 1000 -c 0 -i 72 -a 0 -x {0.0 1.0 -1 ------- null}
+ -t 1.36 -s 0 -d 1 -p cbr -e 500 -c 0 -i 73 -a 0 -x {0.0 1.0 73 ------- null}
r -t 1.3608 -s 0 -d 1 -p cbr -e 1000 -c 0 -i 70 -a 0 -x {0.0 1.0 70 ------- null}
- -t 1.3608 -s 0 -d 1 -p cbr -e 500 -c 0 -i 73 -a 0 -x {0.0 1.0 73 ------- null}
h -t 1.3608 -s 0 -d 1 -p cbr -e 500 -c 0 -i 73 -a 0 -x {0.0 1.0 -1 ------- null}
r -t 1.3612 -s 0 -d 1 -p cbr -e 500 -c 0 -i 71 -a 0 -x {0.0 1.0 71 ------- null}
+ -t 1.37 -s 0 -d 1 -p cbr -e 1000 -c 0 -i 74 -a 0 -x {0.0 1.0 74 ------- null}
- -t 1.37 -s 0 -d 1 -p cbr -e 1000 -c 0 -i 74 -a 0 -x {0.0 1.0 74 ------- null}
h -t 1.37 -s 0 -d 1 -p cbr -e 1000 -c 0 -i 74 -a 0 -x {0.0 1.0 -1 ------- null}
+ -t 1.37 -s 0 -d 1 -p cbr -e 500 -c 0 -i 75 -a 0 -x {0.0 1.0 75 ------- null}
r -t 1.3708 -s 0 -d 1 -p cbr -e 1000 -c 0 -i 72 -a 0 -x {0.0 1.0 72 ------- null}
- -t 1.3708 -s 0 -d 1 -p cbr -e 500 -c 0 -i 75 -a 0 -x {0.0 1.0 75 ------- null}
h -t 1.3708 -s 0 -d 1 -p cbr -e 500 -c 0 -i 75 -a 0 -x {0.0 1.0 -1 ------- null}
r -t 1.3712 -s 0 -d 1 -p cbr -e 500 -c 0 -i 73 -a 0 -x {0.0 1.0 73 ------- null}
+ -t 1.38 -s 0 -d 1 -p cbr -e 1000 -c 0 -i 76 -a 0 -x {0.0 1.0 76 ------- null}
- -t 1.38 -s 0 -d 1 -p cbr -e 1000 -c 0 -i 76 -a 0 -x {0.0 1.0 76 ------- null}
h -t 1.38 -s 0 -d 1 -p cbr -e 1000 -c 0 -i 76 -a 0 -x {0.0 1.0 -1 ------- null}
+ -t 1.38 -s 0 -d 1 -p cbr -e 500 -c 0 -i 77 -a 0 -x {0.0 1.0 77 ------- null}
r -t 1.3808 -s 0 -d 1 -p cbr -e 1000 -c 0 -i 74 -a 0 -x {0.0 1.0 74 ------- null}
- -t 1.3808 -s 0 -d 1 -p cbr -e 500 -c 0 -i 77 -a 0 -x {0.0 1.0 77 ------- null}
h -t 1.3808 -s 0 -d 1 -p cbr -e 500 -c 0 -i 77 -a 0 -x {0.0 1.0 -1 ------- null}
r -t 1.3812 -s 0 -d 1 -p cbr -e 500 -c 0 -i 75 -a 0 -x {0.0 1.0 75 ------- null}
+ -t 1.39 -s 0 -d 1 -p cbr -e 1000 -c 0 -i 78 -a 0 -x {0.0 1.0 78 ------- null}
- -t 1.39 -s 0 -d 1 -p cbr -e 1000 -c 0 -i 78 -a 0 -x {0.0 1.0 78 ------- null}
h -t 1.39 -s 0 -d 1 -p cbr -e 1000 -c 0 -i 78 -a 0 -x {0.0 1.0 -1 ------- null}
+ -t 1.39 -s 0 -d 1 -p cbr -e 500 -c 0 -i 79 -a 0 -x {0.0 1.0 79 ------- null}
r -t 1.3908 -s 0 -d 1 -p cbr -e 1000 -c 0 -i 76 -a 0 -x {0.0 1.0 76 ------- null}
- -t 1.3908 -s 0 -d 1 -p cbr -e 500 -c 0 -i 79 -a 0 -x {0.0 1.0 79 ------- null}
h -t 1.3908 -s 0 -d 1 -p cbr -e 500 -c 0 -i 79 -a 0 -x {0.0 1.0 -1 ------- null}
r -t 1.3912 -s 0 -d 1 -p cbr -e 500 -c 0 -i 77 -a 0 -x {0.0 1.0 77 ------- null}
+ -t 1.4 -s 0 -d 1 -p cbr -e 1000 -c 0 -i 80 -a 0 -x {0.0 1.0 80 ------- null}
- -t 1.4 -s 0 -d 1 -p cbr -e 1000 -c 0 -i 80 -a 0 -x {0.0 1.0 80 ------- null}
h -t 1.4 -s 0 -d 1 -p cbr -e 1000 -c 0 -i 80 -a 0 -x {0.0 1.0 -1 ------- null}
+ -t 1.4 -s 0 -d 1 -p cbr -e 500 -c 0 -i 81 -a 0 -x {0.0 1.0 81 ------- null}
r -t 1.4008 -s 0 -d 1 -p cbr -e 1000 -c 0 -i 78 -a 0 -x {0.0 1.0 78 ------- null}
- -t 1.4008 -s 0 -d 1 -p cbr -e 500 -c 0 -i 81 -a 0 -x {0.0 1.0 81 ------- null}
h -t 1.4008 -s 0 -d 1 -p cbr -e 500 -c 0 -i 81 -a 0 -x {0.0 1.0 -1 ------- null}
r -t 1.4012 -s 0 -d 1 -p cbr -e 500 -c 0 -i 79 -a 0 -x {0.0 1.0 79 ------- null}
+ -t 1.41 -s 0 -d 1 -p cbr -e 1000 -c 0 -i 82 -a 0 -x {0.0 1.0 82 ------- null}
- -t 1.41 -s 0 -d 1 -p cbr -e 1000 -c 0 -i 82 -a 0 -x {0.0 1.0 82 ------- null}
h -t 1.41 -s 0 -d 1 -p cbr -e 1000 -c 0 -i 82 -a 0 -x {0.0 1.0 -1 ------- null}
+ -t 1.41 -s 0 -d 1 -p cbr -e 500 -c 0 -i 83 -a 0 -x {0.0 1.0 83 ------- null}
r -t 1.4108 -s 0 -d 1 -p cbr -e 1000 -c 0 -i 80 -a 0 -x {0.0 1.0 80 ------- null}
- -t 1.4108 -s 0 -d 1 -p cbr -e 500 -c 0 -i 83 -a 0 -x {0.0 1.0 83 ------- null}
h -t 1.4108 -s 0 -d 1 -p cbr -e 500 -c 0 -i 83 -a 0 -x {0.0 1.0 -1 ------- null}
r -t 1.4112 -s 0 -d 1 -p cbr -e 500 -c 0 -i 81 -a 0 -x {0.0 1.0 81 ------- null}
+ -t 1.42 -s 0 -d 1 -p cbr -e 1000 -c 0 -i 84 -a 0 -x {0.0 1.0 84 ------- null}
- -t 1.42 -s 0 -d 1 -p cbr -e 1000 -c 0 -i 84 -a 0 -x {0.0 1.0 84 ------- null}
h -t 1.42 -s 0 -d 1 -p cbr -e 1000 -c 0 -i 84 -a 0 -x {0.0 1.0 -1 ------- null}
+ -t 1.42 -s 0 -d 1 -p cbr -e 500 -c 0 -i 85 -a 0 -x {0.0 1.0 85 ------- null}
r -t 1.4208 -s 0 -d 1 -p cbr -e 1000 -c 0 -i 82 -a 0 -x {0.0 1.0 82 ------- null}
- -t 1.4208 -s 0 -d 1 -p cbr -e 500 -c 0 -i 85 -a 0 -x {0.0 1.0 85 ------- null}
h -t 1.4208 -s 0 -d 1 -p cbr -e 500 -c 0 -i 85 -a 0 -x {0.0 1.0 -1 ------- null}
r -t 1.4212 -s 0 -d 1 -p cbr -e 500 -c 0 -i 83 -a 0 -x {0.0 1.0 83 ------- null}
+ -t 1.43 -s 0 -d 1 -p cbr -e 1000 -c 0 -i 86 -a 0 -x {0.0 1.0 86 ------- null}
- -t 1.43 -s 0 -d 1 -p cbr -e 1000 -c 0 -i 86 -a 0 -x {0.0 1.0 86 ------- null}
h -t 1.43 -s 0 -d 1 -p cbr -e 1000 -c 0 -i 86 -a 0 -x {0.0 1.0 -1 ------- null}
+ -t 1.43 -s 0 -d 1 -p cbr -e 500 -c 0 -i 87 -a 0 -x {0.0 1.0 87 ------- null}
r -t 1.4308 -s 0 -d 1 -p cbr -e 1000 -c 0 -i 84 -a 0 -x {0.0 1.0 84 ------- null}
- -t 1.4308 -s 0 -d 1 -p cbr -e 500 -c 0 -i 87 -a 0 -x {0.0 1.0 87 ------- null}
h -t 1.4308 -s 0 -d 1 -p cbr -e 500 -c 0 -i 87 -a 0 -x {0.0 1.0 -1 ------- null}
r -t 1.4312 -s 0 -d 1 -p cbr -e 500 -c 0 -i 85 -a 0 -x {0.0 1.0 85 ------- null}
+ -t 1.44 -s 0 -d 1 -p cbr -e 1000 -c 0 -i 88 -a 0 -x {0.0 1.0 88 ------- null}
- -t 1.44 -s 0 -d 1 -p cbr -e 1000 -c 0 -i 88 -a 0 -x {0.0 1.0 88 ------- null}
h -t 1.44 -s 0 -d 1 -p cbr -e 1000 -c 0 -i 88 -a 0 -x {0.0 1.0 -1 ------- null}
+ -t 1.44 -s 0 -d 1 -p cbr -e 500 -c 0 -i 89 -a 0 -x {0.0 1.0 89 ------- null}
r -t 1.4408 -s 0 -d 1 -p cbr -e 1000 -c 0 -i 86 -a 0 -x {0.0 1.0 86 ------- null}
- -t 1.4408 -s 0 -d 1 -p cbr -e 500 -c 0 -i 89 -a 0 -x {0.0 1.0 89 ------- null}
h -t 1.4408 -s 0 -d 1 -p cbr -e 500 -c 0 -i 89 -a 0 -x {0.0 1.0 -1 ------- null}
r -t 1.4412 -s 0 -d 1 -p cbr -e 500 -c 0 -i 87 -a 0 -x {0.0 1.0 87 ------- null}
+ -t 1.45 -s 0 -d 1 -p cbr -e 1000 -c 0 -i 90 -a 0 -x {0.0 1.0 90 ------- null}
- -t 1.45 -s 0 -d 1 -p cbr -e 1000 -c 0 -i 90 -a 0 -x {0.0 1.0 90 ------- null}
h -t 1.45 -s 0 -d 1 -p cbr -e 1000 -c 0 -i 90 -a 0 -x {0.0 1.0 -1 ------- null}
+ -t 1.45 -s 0 -d 1 -p cbr -e 500 -c 0 -i 91 -a 0 -x {0.0 1.0 91 ------- null}
r -t 1.4508 -s 0 -d 1 -p cbr -e 1000 -c 0 -i 88 -a 0 -x {0.0 1.0 88 ------- null}
- -t 1.4508 -s 0 -d 1 -p cbr -e 500 -c 0 -i 91 -a 0 -x {0.0 1.0 91 ------- null}
h -t 1.4508 -s 0 -d 1 -p cbr -e 500 -c 0 -i 91 -a 0 -x {0.0 1.0 -1 ------- null}
r -t 1.4512 -s 0 -d 1 -p cbr -e 500 -c 0 -i 89 -a 0 -x {0.0 1.0 89 ------- null}
+ -t 1.46 -s 0 -d 1 -p cbr -e 1000 -c 0 -i 92 -a 0 -x {0.0 1.0 92 ------- null}
- -t 1.46 -s 0 -d 1 -p cbr -e 1000 -c 0 -i 92 -a 0 -x {0.0 1.0 92 ------- null}
h -t 1.46 -s 0 -d 1 -p cbr -e 1000 -c 0 -i 92 -a 0 -x {0.0 1.0 -1 ------- null}
+ -t 1.46 -s 0 -d 1 -p cbr -e 500 -c 0 -i 93 -a 0 -x {0.0 1.0 93 ------- null}