V -t * -v 1.0a5 -a 0
A -t * -n 1 -p 0 -o 0x7fffffff -c 30 -a 1
A -t * -h 1 -m 1073741823 -s 0
c -t * -i 1 -n red
c -t * -i 2 -n blue
n -t * -a 4 -s 4 -S UP -v circle -c black -i black
n -t * -a 0 -s 0 -S UP -v circle -c black -i black
n -t * -a 5 -s 5 -S UP -v circle -c black -i black
n -t * -a 1 -s 1 -S UP -v circle -c black -i black
n -t * -a 2 -s 2 -S UP -v circle -c black -i black
n -t * -a 3 -s 3 -S UP -v circle -c black -i black
l -t * -s 0 -d 1 -S UP -r 1000000 -D 0.02 -c black
l -t * -s 0 -d 3 -S UP -r 1000000 -D 0.01 -c black
l -t * -s 1 -d 2 -S UP -r 1000000 -D 0.029999999999999999 -c black
l -t * -s 1 -d 3 -S UP -r 1000000 -D 0.02 -c black
l -t * -s 2 -d 3 -S UP -r 1000000 -D 0.029999999999999999 -c black
l -t * -s 2 -d 4 -S UP -r 1000000 -D 0.01 -c black
l -t * -s 2 -d 5 -S UP -r 1000000 -D 0.050000000000000003 -c black
l -t * -s 3 -d 4 -S UP -r 1000000 -D 0.01 -c black
l -t * -s 4 -d 5 -S UP -r 1000000 -D 0.02 -c black
+ -t 0.000169788487334637 -s 0 -d 1 -p rtProtoDV -e 6 -c 0 -i 0 -a 0 -x {0.2 1.1 -1 ------- null}
- -t 0.000169788487334637 -s 0 -d 1 -p rtProtoDV -e 6 -c 0 -i 0 -a 0 -x {0.2 1.1 -1 ------- null}
h -t 0.000169788487334637 -s 0 -d 1 -p rtProtoDV -e 6 -c 0 -i 0 -a 0 -x {0.2 1.1 -1 ------- null}
+ -t 0.000169788487334637 -s 0 -d 3 -p rtProtoDV -e 6 -c 0 -i 1 -a 0 -x {0.2 3.2 -1 ------- null}
- -t 0.000169788487334637 -s 0 -d 3 -p rtProtoDV -e 6 -c 0 -i 1 -a 0 -x {0.2 3.2 -1 ------- null}
h -t 0.000169788487334637 -s 0 -d 3 -p rtProtoDV -e 6 -c 0 -i 1 -a 0 -x {0.2 3.2 -1 ------- null}
+ -t 0.00710233021858257 -s 2 -d 1 -p rtProtoDV -e 6 -c 0 -i 2 -a 0 -x {2.2 1.1 -1 ------- null}
- -t 0.00710233021858257 -s 2 -d 1 -p rtProtoDV -e 6 -c 0 -i 2 -a 0 -x {2.2 1.1 -1 ------- null}
h -t 0.00710233021858257 -s 2 -d 1 -p rtProtoDV -e 6 -c 0 -i 2 -a 0 -x {2.2 1.1 -1 ------- null}
+ -t 0.00710233021858257 -s 2 -d 3 -p rtProtoDV -e 6 -c 0 -i 3 -a 0 -x {2.2 3.2 -1 ------- null}
- -t 0.00710233021858257 -s 2 -d 3 -p rtProtoDV -e 6 -c 0 -i 3 -a 0 -x {2.2 3.2 -1 ------- null}
h -t 0.00710233021858257 -s 2 -d 3 -p rtProtoDV -e 6 -c 0 -i 3 -a 0 -x {2.2 3.2 -1 ------- null}
+ -t 0.00710233021858257 -s 2 -d 4 -p rtProtoDV -e 6 -c 0 -i 4 -a 0 -x {2.2 4.1 -1 ------- null}
- -t 0.00710233021858257 -s 2 -d 4 -p rtProtoDV -e 6 -c 0 -i 4 -a 0 -x {2.2 4.1 -1 ------- null}
h -t 0.00710233021858257 -s 2 -d 4 -p rtProtoDV -e 6 -c 0 -i 4 -a 0 -x {2.2 4.1 -1 ------- null}
+ -t 0.00710233021858257 -s 2 -d 5 -p rtProtoDV -e 6 -c 0 -i 5 -a 0 -x {2.2 5.2 -1 ------- null}
- -t 0.00710233021858257 -s 2 -d 5 -p rtProtoDV -e 6 -c 0 -i 5 -a 0 -x {2.2 5.2 -1 ------- null}
h -t 0.00710233021858257 -s 2 -d 5 -p rtProtoDV -e 6 -c 0 -i 5 -a 0 -x {2.2 5.2 -1 ------- null}
r -t 0.0102177884873346 -s 0 -d 3 -p rtProtoDV -e 6 -c 0 -i 1 -a 0 -x {0.2 3.2 -1 ------- null}
r -t 0.0171503302185826 -s 2 -d 4 -p rtProtoDV -e 6 -c 0 -i 4 -a 0 -x {2.2 4.1 -1 ------- null}
+ -t 0.0171503302185826 -s 4 -d 2 -p rtProtoDV -e 6 -c 0 -i 6 -a 0 -x {4.1 2.2 -1 ------- null}
- -t 0.0171503302185826 -s 4 -d 2 -p rtProtoDV -e 6 -c 0 -i 6 -a 0 -x {4.1 2.2 -1 ------- null}
h -t 0.0171503302185826 -s 4 -d 2 -p rtProtoDV -e 6 -c 0 -i 6 -a 0 -x {4.1 2.2 -1 ------- null}
+ -t 0.0171503302185826 -s 4 -d 3 -p rtProtoDV -e 6 -c 0 -i 7 -a 0 -x {4.1 3.2 -1 ------- null}
- -t 0.0171503302185826 -s 4 -d 3 -p rtProtoDV -e 6 -c 0 -i 7 -a 0 -x {4.1 3.2 -1 ------- null}
h -t 0.0171503302185826 -s 4 -d 3 -p rtProtoDV -e 6 -c 0 -i 7 -a 0 -x {4.1 3.2 -1 ------- null}
+ -t 0.0171503302185826 -s 4 -d 5 -p rtProtoDV -e 6 -c 0 -i 8 -a 0 -x {4.1 5.2 -1 ------- null}
- -t 0.0171503302185826 -s 4 -d 5 -p rtProtoDV -e 6 -c 0 -i 8 -a 0 -x {4.1 5.2 -1 ------- null}
h -t 0.0171503302185826 -s 4 -d 5 -p rtProtoDV -e 6 -c 0 -i 8 -a 0 -x {4.1 5.2 -1 ------- null}
r -t 0.0202177884873346 -s 0 -d 1 -p rtProtoDV -e 6 -c 0 -i 0 -a 0 -x {0.2 1.1 -1 ------- null}
r -t 0.0271983302185826 -s 4 -d 2 -p rtProtoDV -e 6 -c 0 -i 6 -a 0 -x {4.1 2.2 -1 ------- null}
r -t 0.0271983302185826 -s 4 -d 3 -p rtProtoDV -e 6 -c 0 -i 7 -a 0 -x {4.1 3.2 -1 ------- null}
+ -t 0.0271983302185826 -s 3 -d 0 -p rtProtoDV -e 6 -c 0 -i 9 -a 0 -x {3.2 0.2 -1 ------- null}
- -t 0.0271983302185826 -s 3 -d 0 -p rtProtoDV -e 6 -c 0 -i 9 -a 0 -x {3.2 0.2 -1 ------- null}
h -t 0.0271983302185826 -s 3 -d 0 -p rtProtoDV -e 6 -c 0 -i 9 -a 0 -x {3.2 0.2 -1 ------- null}
+ -t 0.0271983302185826 -s 3 -d 1 -p rtProtoDV -e 6 -c 0 -i 10 -a 0 -x {3.2 1.1 -1 ------- null}
- -t 0.0271983302185826 -s 3 -d 1 -p rtProtoDV -e 6 -c 0 -i 10 -a 0 -x {3.2 1.1 -1 ------- null}
h -t 0.0271983302185826 -s 3 -d 1 -p rtProtoDV -e 6 -c 0 -i 10 -a 0 -x {3.2 1.1 -1 ------- null}
+ -t 0.0271983302185826 -s 3 -d 2 -p rtProtoDV -e 6 -c 0 -i 11 -a 0 -x {3.2 2.2 -1 ------- null}
- -t 0.0271983302185826 -s 3 -d 2 -p rtProtoDV -e 6 -c 0 -i 11 -a 0 -x {3.2 2.2 -1 ------- null}
h -t 0.0271983302185826 -s 3 -d 2 -p rtProtoDV -e 6 -c 0 -i 11 -a 0 -x {3.2 2.2 -1 ------- null}
+ -t 0.0271983302185826 -s 3 -d 4 -p rtProtoDV -e 6 -c 0 -i 12 -a 0 -x {3.2 4.1 -1 ------- null}
- -t 0.0271983302185826 -s 3 -d 4 -p rtProtoDV -e 6 -c 0 -i 12 -a 0 -x {3.2 4.1 -1 ------- null}
h -t 0.0271983302185826 -s 3 -d 4 -p rtProtoDV -e 6 -c 0 -i 12 -a 0 -x {3.2 4.1 -1 ------- null}
r -t 0.0371503302185826 -s 2 -d 1 -p rtProtoDV -e 6 -c 0 -i 2 -a 0 -x {2.2 1.1 -1 ------- null}
+ -t 0.0371503302185826 -s 1 -d 0 -p rtProtoDV -e 6 -c 0 -i 13 -a 0 -x {1.1 0.2 -1 ------- null}
- -t 0.0371503302185826 -s 1 -d 0 -p rtProtoDV -e 6 -c 0 -i 13 -a 0 -x {1.1 0.2 -1 ------- null}
h -t 0.0371503302185826 -s 1 -d 0 -p rtProtoDV -e 6 -c 0 -i 13 -a 0 -x {1.1 0.2 -1 ------- null}
+ -t 0.0371503302185826 -s 1 -d 2 -p rtProtoDV -e 6 -c 0 -i 14 -a 0 -x {1.1 2.2 -1 ------- null}
- -t 0.0371503302185826 -s 1 -d 2 -p rtProtoDV -e 6 -c 0 -i 14 -a 0 -x {1.1 2.2 -1 ------- null}
h -t 0.0371503302185826 -s 1 -d 2 -p rtProtoDV -e 6 -c 0 -i 14 -a 0 -x {1.1 2.2 -1 ------- null}
+ -t 0.0371503302185826 -s 1 -d 3 -p rtProtoDV -e 6 -c 0 -i 15 -a 0 -x {1.1 3.2 -1 ------- null}
- -t 0.0371503302185826 -s 1 -d 3 -p rtProtoDV -e 6 -c 0 -i 15 -a 0 -x {1.1 3.2 -1 ------- null}
h -t 0.0371503302185826 -s 1 -d 3 -p rtProtoDV -e 6 -c 0 -i 15 -a 0 -x {1.1 3.2 -1 ------- null}
r -t 0.0371503302185826 -s 2 -d 3 -p rtProtoDV -e 6 -c 0 -i 3 -a 0 -x {2.2 3.2 -1 ------- null}
r -t 0.0371983302185826 -s 4 -d 5 -p rtProtoDV -e 6 -c 0 -i 8 -a 0 -x {4.1 5.2 -1 ------- null}
+ -t 0.0371983302185826 -s 5 -d 2 -p rtProtoDV -e 6 -c 0 -i 16 -a 0 -x {5.2 2.2 -1 ------- null}
- -t 0.0371983302185826 -s 5 -d 2 -p rtProtoDV -e 6 -c 0 -i 16 -a 0 -x {5.2 2.2 -1 ------- null}
h -t 0.0371983302185826 -s 5 -d 2 -p rtProtoDV -e 6 -c 0 -i 16 -a 0 -x {5.2 2.2 -1 ------- null}
+ -t 0.0371983302185826 -s 5 -d 4 -p rtProtoDV -e 6 -c 0 -i 17 -a 0 -x {5.2 4.1 -1 ------- null}
- -t 0.0371983302185826 -s 5 -d 4 -p rtProtoDV -e 6 -c 0 -i 17 -a 0 -x {5.2 4.1 -1 ------- null}
h -t 0.0371983302185826 -s 5 -d 4 -p rtProtoDV -e 6 -c 0 -i 17 -a 0 -x {5.2 4.1 -1 ------- null}
r -t 0.0372463302185826 -s 3 -d 0 -p rtProtoDV -e 6 -c 0 -i 9 -a 0 -x {3.2 0.2 -1 ------- null}
+ -t 0.0372463302185826 -s 0 -d 1 -p rtProtoDV -e 6 -c 0 -i 18 -a 0 -x {0.2 1.1 -1 ------- null}
- -t 0.0372463302185826 -s 0 -d 1 -p rtProtoDV -e 6 -c 0 -i 18 -a 0 -x {0.2 1.1 -1 ------- null}
h -t 0.0372463302185826 -s 0 -d 1 -p rtProtoDV -e 6 -c 0 -i 18 -a 0 -x {0.2 1.1 -1 ------- null}
+ -t 0.0372463302185826 -s 0 -d 3 -p rtProtoDV -e 6 -c 0 -i 19 -a 0 -x {0.2 3.2 -1 ------- null}
- -t 0.0372463302185826 -s 0 -d 3 -p rtProtoDV -e 6 -c 0 -i 19 -a 0 -x {0.2 3.2 -1 ------- null}
h -t 0.0372463302185826 -s 0 -d 3 -p rtProtoDV -e 6 -c 0 -i 19 -a 0 -x {0.2 3.2 -1 ------- null}
r -t 0.0372463302185826 -s 3 -d 4 -p rtProtoDV -e 6 -c 0 -i 12 -a 0 -x {3.2 4.1 -1 ------- null}
+ -t 0.0372463302185826 -s 4 -d 2 -p rtProtoDV -e 6 -c 0 -i 20 -a 0 -x {4.1 2.2 -1 ------- null}
- -t 0.0372463302185826 -s 4 -d 2 -p rtProtoDV -e 6 -c 0 -i 20 -a 0 -x {4.1 2.2 -1 ------- null}
h -t 0.0372463302185826 -s 4 -d 2 -p rtProtoDV -e 6 -c 0 -i 20 -a 0 -x {4.1 2.2 -1 ------- null}
+ -t 0.0372463302185826 -s 4 -d 3 -p rtProtoDV -e 6 -c 0 -i 21 -a 0 -x {4.1 3.2 -1 ------- null}
- -t 0.0372463302185826 -s 4 -d 3 -p rtProtoDV -e 6 -c 0 -i 21 -a 0 -x {4.1 3.2 -1 ------- null}
h -t 0.0372463302185826 -s 4 -d 3 -p rtProtoDV -e 6 -c 0 -i 21 -a 0 -x {4.1 3.2 -1 ------- null}
+ -t 0.0372463302185826 -s 4 -d 5 -p rtProtoDV -e 6 -c 0 -i 22 -a 0 -x {4.1 5.2 -1 ------- null}
- -t 0.0372463302185826 -s 4 -d 5 -p rtProtoDV -e 6 -c 0 -i 22 -a 0 -x {4.1 5.2 -1 ------- null}
h -t 0.0372463302185826 -s 4 -d 5 -p rtProtoDV -e 6 -c 0 -i 22 -a 0 -x {4.1 5.2 -1 ------- null}
+ -t 0.04406133552271 -s 3 -d 0 -p rtProtoDV -e 6 -c 0 -i 23 -a 0 -x {3.2 0.2 -1 ------- null}
- -t 0.04406133552271 -s 3 -d 0 -p rtProtoDV -e 6 -c 0 -i 23 -a 0 -x {3.2 0.2 -1 ------- null}
h -t 0.04406133552271 -s 3 -d 0 -p rtProtoDV -e 6 -c 0 -i 23 -a 0 -x {3.2 0.2 -1 ------- null}
+ -t 0.04406133552271 -s 3 -d 1 -p rtProtoDV -e 6 -c 0 -i 24 -a 0 -x {3.2 1.1 -1 ------- null}
- -t 0.04406133552271 -s 3 -d 1 -p rtProtoDV -e 6 -c 0 -i 24 -a 0 -x {3.2 1.1 -1 ------- null}
h -t 0.04406133552271 -s 3 -d 1 -p rtProtoDV -e 6 -c 0 -i 24 -a 0 -x {3.2 1.1 -1 ------- null}
+ -t 0.04406133552271 -s 3 -d 2 -p rtProtoDV -e 6 -c 0 -i 25 -a 0 -x {3.2 2.2 -1 ------- null}
- -t 0.04406133552271 -s 3 -d 2 -p rtProtoDV -e 6 -c 0 -i 25 -a 0 -x {3.2 2.2 -1 ------- null}
h -t 0.04406133552271 -s 3 -d 2 -p rtProtoDV -e 6 -c 0 -i 25 -a 0 -x {3.2 2.2 -1 ------- null}
+ -t 0.04406133552271 -s 3 -d 4 -p rtProtoDV -e 6 -c 0 -i 26 -a 0 -x {3.2 4.1 -1 ------- null}
- -t 0.04406133552271 -s 3 -d 4 -p rtProtoDV -e 6 -c 0 -i 26 -a 0 -x {3.2 4.1 -1 ------- null}
h -t 0.04406133552271 -s 3 -d 4 -p rtProtoDV -e 6 -c 0 -i 26 -a 0 -x {3.2 4.1 -1 ------- null}
r -t 0.0472463302185826 -s 3 -d 1 -p rtProtoDV -e 6 -c 0 -i 10 -a 0 -x {3.2 1.1 -1 ------- null}
+ -t 0.0472463302185826 -s 1 -d 0 -p rtProtoDV -e 6 -c 0 -i 27 -a 0 -x {1.1 0.2 -1 ------- null}
- -t 0.0472463302185826 -s 1 -d 0 -p rtProtoDV -e 6 -c 0 -i 27 -a 0 -x {1.1 0.2 -1 ------- null}
h -t 0.0472463302185826 -s 1 -d 0 -p rtProtoDV -e 6 -c 0 -i 27 -a 0 -x {1.1 0.2 -1 ------- null}
+ -t 0.0472463302185826 -s 1 -d 2 -p rtProtoDV -e 6 -c 0 -i 28 -a 0 -x {1.1 2.2 -1 ------- null}
- -t 0.0472463302185826 -s 1 -d 2 -p rtProtoDV -e 6 -c 0 -i 28 -a 0 -x {1.1 2.2 -1 ------- null}
h -t 0.0472463302185826 -s 1 -d 2 -p rtProtoDV -e 6 -c 0 -i 28 -a 0 -x {1.1 2.2 -1 ------- null}
+ -t 0.0472463302185826 -s 1 -d 3 -p rtProtoDV -e 6 -c 0 -i 29 -a 0 -x {1.1 3.2 -1 ------- null}
- -t 0.0472463302185826 -s 1 -d 3 -p rtProtoDV -e 6 -c 0 -i 29 -a 0 -x {1.1 3.2 -1 ------- null}
h -t 0.0472463302185826 -s 1 -d 3 -p rtProtoDV -e 6 -c 0 -i 29 -a 0 -x {1.1 3.2 -1 ------- null}
r -t 0.0472943302185826 -s 0 -d 3 -p rtProtoDV -e 6 -c 0 -i 19 -a 0 -x {0.2 3.2 -1 ------- null}
r -t 0.0472943302185826 -s 4 -d 2 -p rtProtoDV -e 6 -c 0 -i 20 -a 0 -x {4.1 2.2 -1 ------- null}
+ -t 0.0472943302185826 -s 2 -d 1 -p rtProtoDV -e 6 -c 0 -i 30 -a 0 -x {2.2 1.1 -1 ------- null}
- -t 0.0472943302185826 -s 2 -d 1 -p rtProtoDV -e 6 -c 0 -i 30 -a 0 -x {2.2 1.1 -1 ------- null}
h -t 0.0472943302185826 -s 2 -d 1 -p rtProtoDV -e 6 -c 0 -i 30 -a 0 -x {2.2 1.1 -1 ------- null}
+ -t 0.0472943302185826 -s 2 -d 3 -p rtProtoDV -e 6 -c 0 -i 31 -a 0 -x {2.2 3.2 -1 ------- null}
- -t 0.0472943302185826 -s 2 -d 3 -p rtProtoDV -e 6 -c 0 -i 31 -a 0 -x {2.2 3.2 -1 ------- null}
h -t 0.0472943302185826 -s 2 -d 3 -p rtProtoDV -e 6 -c 0 -i 31 -a 0 -x {2.2 3.2 -1 ------- null}
+ -t 0.0472943302185826 -s 2 -d 4 -p rtProtoDV -e 6 -c 0 -i 32 -a 0 -x {2.2 4.1 -1 ------- null}
- -t 0.0472943302185826 -s 2 -d 4 -p rtProtoDV -e 6 -c 0 -i 32 -a 0 -x {2.2 4.1 -1 ------- null}
h -t 0.0472943302185826 -s 2 -d 4 -p rtProtoDV -e 6 -c 0 -i 32 -a 0 -x {2.2 4.1 -1 ------- null}
+ -t 0.0472943302185826 -s 2 -d 5 -p rtProtoDV -e 6 -c 0 -i 33 -a 0 -x {2.2 5.2 -1 ------- null}
- -t 0.0472943302185826 -s 2 -d 5 -p rtProtoDV -e 6 -c 0 -i 33 -a 0 -x {2.2 5.2 -1 ------- null}
h -t 0.0472943302185826 -s 2 -d 5 -p rtProtoDV -e 6 -c 0 -i 33 -a 0 -x {2.2 5.2 -1 ------- null}
r -t 0.0472943302185826 -s 4 -d 3 -p rtProtoDV -e 6 -c 0 -i 21 -a 0 -x {4.1 3.2 -1 ------- null}
r -t 0.05410933552271 -s 3 -d 0 -p rtProtoDV -e 6 -c 0 -i 23 -a 0 -x {3.2 0.2 -1 ------- null}
r -t 0.05410933552271 -s 3 -d 4 -p rtProtoDV -e 6 -c 0 -i 26 -a 0 -x {3.2 4.1 -1 ------- null}
r -t 0.0571503302185826 -s 2 -d 5 -p rtProtoDV -e 6 -c 0 -i 5 -a 0 -x {2.2 5.2 -1 ------- null}
r -t 0.0571983302185826 -s 1 -d 0 -p rtProtoDV -e 6 -c 0 -i 13 -a 0 -x {1.1 0.2 -1 ------- null}
r -t 0.0571983302185826 -s 1 -d 3 -p rtProtoDV -e 6 -c 0 -i 15 -a 0 -x {1.1 3.2 -1 ------- null}
r -t 0.0572463302185826 -s 3 -d 2 -p rtProtoDV -e 6 -c 0 -i 11 -a 0 -x {3.2 2.2 -1 ------- null}
r -t 0.0572463302185826 -s 5 -d 4 -p rtProtoDV -e 6 -c 0 -i 17 -a 0 -x {5.2 4.1 -1 ------- null}
r -t 0.0572943302185826 -s 0 -d 1 -p rtProtoDV -e 6 -c 0 -i 18 -a 0 -x {0.2 1.1 -1 ------- null}
r -t 0.0572943302185826 -s 4 -d 5 -p rtProtoDV -e 6 -c 0 -i 22 -a 0 -x {4.1 5.2 -1 ------- null}
+ -t 0.0572943302185826 -s 5 -d 2 -p rtProtoDV -e 6 -c 0 -i 34 -a 0 -x {5.2 2.2 -1 ------- null}
- -t 0.0572943302185826 -s 5 -d 2 -p rtProtoDV -e 6 -c 0 -i 34 -a 0 -x {5.2 2.2 -1 ------- null}
h -t 0.0572943302185826 -s 5 -d 2 -p rtProtoDV -e 6 -c 0 -i 34 -a 0 -x {5.2 2.2 -1 ------- null}
+ -t 0.0572943302185826 -s 5 -d 4 -p rtProtoDV -e 6 -c 0 -i 35 -a 0 -x {5.2 4.1 -1 ------- null}
- -t 0.0572943302185826 -s 5 -d 4 -p rtProtoDV -e 6 -c 0 -i 35 -a 0 -x {5.2 4.1 -1 ------- null}
h -t 0.0572943302185826 -s 5 -d 4 -p rtProtoDV -e 6 -c 0 -i 35 -a 0 -x {5.2 4.1 -1 ------- null}
r -t 0.0573423302185826 -s 2 -d 4 -p rtProtoDV -e 6 -c 0 -i 32 -a 0 -x {2.2 4.1 -1 ------- null}
r -t 0.06410933552271 -s 3 -d 1 -p rtProtoDV -e 6 -c 0 -i 24 -a 0 -x {3.2 1.1 -1 ------- null}
r -t 0.0671983302185826 -s 1 -d 2 -p rtProtoDV -e 6 -c 0 -i 14 -a 0 -x {1.1 2.2 -1 ------- null}
r -t 0.0672943302185826 -s 1 -d 0 -p rtProtoDV -e 6 -c 0 -i 27 -a 0 -x {1.1 0.2 -1 ------- null}
r -t 0.0672943302185826 -s 1 -d 3 -p rtProtoDV -e 6 -c 0 -i 29 -a 0 -x {1.1 3.2 -1 ------- null}
r -t 0.07410933552271 -s 3 -d 2 -p rtProtoDV -e 6 -c 0 -i 25 -a 0 -x {3.2 2.2 -1 ------- null}
r -t 0.0772943302185826 -s 1 -d 2 -p rtProtoDV -e 6 -c 0 -i 28 -a 0 -x {1.1 2.2 -1 ------- null}
r -t 0.0773423302185826 -s 2 -d 1 -p rtProtoDV -e 6 -c 0 -i 30 -a 0 -x {2.2 1.1 -1 ------- null}
r -t 0.0773423302185826 -s 2 -d 3 -p rtProtoDV -e 6 -c 0 -i 31 -a 0 -x {2.2 3.2 -1 ------- null}
r -t 0.0773423302185826 -s 5 -d 4 -p rtProtoDV -e 6 -c 0 -i 35 -a 0 -x {5.2 4.1 -1 ------- null}
r -t 0.0872463302185826 -s 5 -d 2 -p rtProtoDV -e 6 -c 0 -i 16 -a 0 -x {5.2 2.2 -1 ------- null}
r -t 0.0973423302185826 -s 2 -d 5 -p rtProtoDV -e 6 -c 0 -i 33 -a 0 -x {2.2 5.2 -1 ------- null}
r -t 0.107342330218583 -s 5 -d 2 -p rtProtoDV -e 6 -c 0 -i 34 -a 0 -x {5.2 2.2 -1 ------- null}
+ -t 0.22058669092161 -s 4 -d 2 -p rtProtoDV -e 6 -c 0 -i 36 -a 0 -x {4.1 2.2 -1 ------- null}
- -t 0.22058669092161 -s 4 -d 2 -p rtProtoDV -e 6 -c 0 -i 36 -a 0 -x {4.1 2.2 -1 ------- null}
h -t 0.22058669092161 -s 4 -d 2 -p rtProtoDV -e 6 -c 0 -i 36 -a 0 -x {4.1 2.2 -1 ------- null}
+ -t 0.22058669092161 -s 4 -d 3 -p rtProtoDV -e 6 -c 0 -i 37 -a 0 -x {4.1 3.2 -1 ------- null}
- -t 0.22058669092161 -s 4 -d 3 -p rtProtoDV -e 6 -c 0 -i 37 -a 0 -x {4.1 3.2 -1 ------- null}
h -t 0.22058669092161 -s 4 -d 3 -p rtProtoDV -e 6 -c 0 -i 37 -a 0 -x {4.1 3.2 -1 ------- null}
+ -t 0.22058669092161 -s 4 -d 5 -p rtProtoDV -e 6 -c 0 -i 38 -a 0 -x {4.1 5.2 -1 ------- null}
- -t 0.22058669092161 -s 4 -d 5 -p rtProtoDV -e 6 -c 0 -i 38 -a 0 -x {4.1 5.2 -1 ------- null}
h -t 0.22058669092161 -s 4 -d 5 -p rtProtoDV -e 6 -c 0 -i 38 -a 0 -x {4.1 5.2 -1 ------- null}
r -t 0.23063469092161 -s 4 -d 2 -p rtProtoDV -e 6 -c 0 -i 36 -a 0 -x {4.1 2.2 -1 ------- null}
r -t 0.23063469092161 -s 4 -d 3 -p rtProtoDV -e 6 -c 0 -i 37 -a 0 -x {4.1 3.2 -1 ------- null}
r -t 0.24063469092161 -s 4 -d 5 -p rtProtoDV -e 6 -c 0 -i 38 -a 0 -x {4.1 5.2 -1 ------- null}
+ -t 0.277940357931862 -s 1 -d 0 -p rtProtoDV -e 6 -c 0 -i 39 -a 0 -x {1.1 0.2 -1 ------- null}
- -t 0.277940357931862 -s 1 -d 0 -p rtProtoDV -e 6 -c 0 -i 39 -a 0 -x {1.1 0.2 -1 ------- null}
h -t 0.277940357931862 -s 1 -d 0 -p rtProtoDV -e 6 -c 0 -i 39 -a 0 -x {1.1 0.2 -1 ------- null}
+ -t 0.277940357931862 -s 1 -d 2 -p rtProtoDV -e 6 -c 0 -i 40 -a 0 -x {1.1 2.2 -1 ------- null}
- -t 0.277940357931862 -s 1 -d 2 -p rtProtoDV -e 6 -c 0 -i 40 -a 0 -x {1.1 2.2 -1 ------- null}
h -t 0.277940357931862 -s 1 -d 2 -p rtProtoDV -e 6 -c 0 -i 40 -a 0 -x {1.1 2.2 -1 ------- null}
+ -t 0.277940357931862 -s 1 -d 3 -p rtProtoDV -e 6 -c 0 -i 41 -a 0 -x {1.1 3.2 -1 ------- null}
- -t 0.277940357931862 -s 1 -d 3 -p rtProtoDV -e 6 -c 0 -i 41 -a 0 -x {1.1 3.2 -1 ------- null}
h -t 0.277940357931862 -s 1 -d 3 -p rtProtoDV -e 6 -c 0 -i 41 -a 0 -x {1.1 3.2 -1 ------- null}
r -t 0.297988357931862 -s 1 -d 0 -p rtProtoDV -e 6 -c 0 -i 39 -a 0 -x {1.1 0.2 -1 ------- null}
r -t 0.297988357931862 -s 1 -d 3 -p rtProtoDV -e 6 -c 0 -i 41 -a 0 -x {1.1 3.2 -1 ------- null}
+ -t 0.3 -s 2 -d 4 -p cbr -e 210 -c 1 -i 42 -a 1 -x {2.0 0.0 0 ------- null}
- -t 0.3 -s 2 -d 4 -p cbr -e 210 -c 1 -i 42 -a 1 -x {2.0 0.0 0 ------- null}
h -t 0.3 -s 2 -d 4 -p cbr -e 210 -c 1 -i 42 -a 1 -x {2.0 0.0 -1 ------- null}
+ -t 0.30375 -s 2 -d 4 -p cbr -e 210 -c 1 -i 43 -a 1 -x {2.0 0.0 1 ------- null}
- -t 0.30375 -s 2 -d 4 -p cbr -e 210 -c 1 -i 43 -a 1 -x {2.0 0.0 1 ------- null}
h -t 0.30375 -s 2 -d 4 -p cbr -e 210 -c 1 -i 43 -a 1 -x {2.0 0.0 -1 ------- null}
+ -t 0.3075 -s 2 -d 4 -p cbr -e 210 -c 1 -i 44 -a 1 -x {2.0 0.0 2 ------- null}
- -t 0.3075 -s 2 -d 4 -p cbr -e 210 -c 1 -i 44 -a 1 -x {2.0 0.0 2 ------- null}
h -t 0.3075 -s 2 -d 4 -p cbr -e 210 -c 1 -i 44 -a 1 -x {2.0 0.0 -1 ------- null}
r -t 0.307988357931862 -s 1 -d 2 -p rtProtoDV -e 6 -c 0 -i 40 -a 0 -x {1.1 2.2 -1 ------- null}
+ -t 0.31125 -s 2 -d 4 -p cbr -e 210 -c 1 -i 45 -a 1 -x {2.0 0.0 3 ------- null}
- -t 0.31125 -s 2 -d 4 -p cbr -e 210 -c 1 -i 45 -a 1 -x {2.0 0.0 3 ------- null}
h -t 0.31125 -s 2 -d 4 -p cbr -e 210 -c 1 -i 45 -a 1 -x {2.0 0.0 -1 ------- null}
r -t 0.31168 -s 2 -d 4 -p cbr -e 210 -c 1 -i 42 -a 1 -x {2.0 0.0 0 ------- null}
+ -t 0.31168 -s 4 -d 3 -p cbr -e 210 -c 1 -i 42 -a 1 -x {2.0 0.0 0 ------- null}
- -t 0.31168 -s 4 -d 3 -p cbr -e 210 -c 1 -i 42 -a 1 -x {2.0 0.0 0 ------- null}
h -t 0.31168 -s 4 -d 3 -p cbr -e 210 -c 1 -i 42 -a 1 -x {2.0 0.0 -1 ------- null}
+ -t 0.315 -s 2 -d 4 -p cbr -e 210 -c 1 -i 46 -a 1 -x {2.0 0.0 4 ------- null}
- -t 0.315 -s 2 -d 4 -p cbr -e 210 -c 1 -i 46 -a 1 -x {2.0 0.0 4 ------- null}
h -t 0.315 -s 2 -d 4 -p cbr -e 210 -c 1 -i 46 -a 1 -x {2.0 0.0 -1 ------- null}
r -t 0.31543 -s 2 -d 4 -p cbr -e 210 -c 1 -i 43 -a 1 -x {2.0 0.0 1 ------- null}
+ -t 0.31543 -s 4 -d 3 -p cbr -e 210 -c 1 -i 43 -a 1 -x {2.0 0.0 1 ------- null}
- -t 0.31543 -s 4 -d 3 -p cbr -e 210 -c 1 -i 43 -a 1 -x {2.0 0.0 1 ------- null}
h -t 0.31543 -s 4 -d 3 -p cbr -e 210 -c 1 -i 43 -a 1 -x {2.0 0.0 -1 ------- null}
+ -t 0.31875 -s 2 -d 4 -p cbr -e 210 -c 1 -i 47 -a 1 -x {2.0 0.0 5 ------- null}
- -t 0.31875 -s 2 -d 4 -p cbr -e 210 -c 1 -i 47 -a 1 -x {2.0 0.0 5 ------- null}
h -t 0.31875 -s 2 -d 4 -p cbr -e 210 -c 1 -i 47 -a 1 -x {2.0 0.0 -1 ------- null}
r -t 0.31918 -s 2 -d 4 -p cbr -e 210 -c 1 -i 44 -a 1 -x {2.0 0.0 2 ------- null}
+ -t 0.31918 -s 4 -d 3 -p cbr -e 210 -c 1 -i 44 -a 1 -x {2.0 0.0 2 ------- null}
- -t 0.31918 -s 4 -d 3 -p cbr -e 210 -c 1 -i 44 -a 1 -x {2.0 0.0 2 ------- null}
h -t 0.31918 -s 4 -d 3 -p cbr -e 210 -c 1 -i 44 -a 1 -x {2.0 0.0 -1 ------- null}
+ -t 0.3225 -s 2 -d 4 -p cbr -e 210 -c 1 -i 48 -a 1 -x {2.0 0.0 6 ------- null}
- -t 0.3225 -s 2 -d 4 -p cbr -e 210 -c 1 -i 48 -a 1 -x {2.0 0.0 6 ------- null}
h -t 0.3225 -s 2 -d 4 -p cbr -e 210 -c 1 -i 48 -a 1 -x {2.0 0.0 -1 ------- null}
r -t 0.32293 -s 2 -d 4 -p cbr -e 210 -c 1 -i 45 -a 1 -x {2.0 0.0 3 ------- null}
+ -t 0.32293 -s 4 -d 3 -p cbr -e 210 -c 1 -i 45 -a 1 -x {2.0 0.0 3 ------- null}
- -t 0.32293 -s 4 -d 3 -p cbr -e 210 -c 1 -i 45 -a 1 -x {2.0 0.0 3 ------- null}
h -t 0.32293 -s 4 -d 3 -p cbr -e 210 -c 1 -i 45 -a 1 -x {2.0 0.0 -1 ------- null}
r -t 0.32336 -s 4 -d 3 -p cbr -e 210 -c 1 -i 42 -a 1 -x {2.0 0.0 0 ------- null}
+ -t 0.32336 -s 3 -d 0 -p cbr -e 210 -c 1 -i 42 -a 1 -x {2.0 0.0 0 ------- null}
- -t 0.32336 -s 3 -d 0 -p cbr -e 210 -c 1 -i 42 -a 1 -x {2.0 0.0 0 ------- null}
h -t 0.32336 -s 3 -d 0 -p cbr -e 210 -c 1 -i 42 -a 1 -x {2.0 0.0 -1 ------- null}
+ -t 0.32625 -s 2 -d 4 -p cbr -e 210 -c 1 -i 49 -a 1 -x {2.0 0.0 7 ------- null}
- -t 0.32625 -s 2 -d 4 -p cbr -e 210 -c 1 -i 49 -a 1 -x {2.0 0.0 7 ------- null}
h -t 0.32625 -s 2 -d 4 -p cbr -e 210 -c 1 -i 49 -a 1 -x {2.0 0.0 -1 ------- null}
r -t 0.32668 -s 2 -d 4 -p cbr -e 210 -c 1 -i 46 -a 1 -x {2.0 0.0 4 ------- null}
+ -t 0.32668 -s 4 -d 3 -p cbr -e 210 -c 1 -i 46 -a 1 -x {2.0 0.0 4 ------- null}
- -t 0.32668 -s 4 -d 3 -p cbr -e 210 -c 1 -i 46 -a 1 -x {2.0 0.0 4 ------- null}
h -t 0.32668 -s 4 -d 3 -p cbr -e 210 -c 1 -i 46 -a 1 -x {2.0 0.0 -1 ------- null}
r -t 0.32711 -s 4 -d 3 -p cbr -e 210 -c 1 -i 43 -a 1 -x {2.0 0.0 1 ------- null}
+ -t 0.32711 -s 3 -d 0 -p cbr -e 210 -c 1 -i 43 -a 1 -x {2.0 0.0 1 ------- null}
- -t 0.32711 -s 3 -d 0 -p cbr -e 210 -c 1 -i 43 -a 1 -x {2.0 0.0 1 ------- null}
h -t 0.32711 -s 3 -d 0 -p cbr -e 210 -c 1 -i 43 -a 1 -x {2.0 0.0 -1 ------- null}
+ -t 0.33 -s 2 -d 4 -p cbr -e 210 -c 1 -i 50 -a 1 -x {2.0 0.0 8 ------- null}
- -t 0.33 -s 2 -d 4 -p cbr -e 210 -c 1 -i 50 -a 1 -x {2.0 0.0 8 ------- null}
h -t 0.33 -s 2 -d 4 -p cbr -e 210 -c 1 -i 50 -a 1 -x {2.0 0.0 -1 ------- null}
r -t 0.33043 -s 2 -d 4 -p cbr -e 210 -c 1 -i 47 -a 1 -x {2.0 0.0 5 ------- null}
+ -t 0.33043 -s 4 -d 3 -p cbr -e 210 -c 1 -i 47 -a 1 -x {2.0 0.0 5 ------- null}
- -t 0.33043 -s 4 -d 3 -p cbr -e 210 -c 1 -i 47 -a 1 -x {2.0 0.0 5 ------- null}
h -t 0.33043 -s 4 -d 3 -p cbr -e 210 -c 1 -i 47 -a 1 -x {2.0 0.0 -1 ------- null}
r -t 0.33086 -s 4 -d 3 -p cbr -e 210 -c 1 -i 44 -a 1 -x {2.0 0.0 2 ------- null}
+ -t 0.33086 -s 3 -d 0 -p cbr -e 210 -c 1 -i 44 -a 1 -x {2.0 0.0 2 ------- null}
- -t 0.33086 -s 3 -d 0 -p cbr -e 210 -c 1 -i 44 -a 1 -x {2.0 0.0 2 ------- null}
h -t 0.33086 -s 3 -d 0 -p cbr -e 210 -c 1 -i 44 -a 1 -x {2.0 0.0 -1 ------- null}
+ -t 0.33375 -s 2 -d 4 -p cbr -e 210 -c 1 -i 51 -a 1 -x {2.0 0.0 9 ------- null}
- -t 0.33375 -s 2 -d 4 -p cbr -e 210 -c 1 -i 51 -a 1 -x {2.0 0.0 9 ------- null}
h -t 0.33375 -s 2 -d 4 -p cbr -e 210 -c 1 -i 51 -a 1 -x {2.0 0.0 -1 ------- null}
r -t 0.33418 -s 2 -d 4 -p cbr -e 210 -c 1 -i 48 -a 1 -x {2.0 0.0 6 ------- null}
+ -t 0.33418 -s 4 -d 3 -p cbr -e 210 -c 1 -i 48 -a 1 -x {2.0 0.0 6 ------- null}
- -t 0.33418 -s 4 -d 3 -p cbr -e 210 -c 1 -i 48 -a 1 -x {2.0 0.0 6 ------- null}
h -t 0.33418 -s 4 -d 3 -p cbr -e 210 -c 1 -i 48 -a 1 -x {2.0 0.0 -1 ------- null}
r -t 0.33461 -s 4 -d 3 -p cbr -e 210 -c 1 -i 45 -a 1 -x {2.0 0.0 3 ------- null}
+ -t 0.33461 -s 3 -d 0 -p cbr -e 210 -c 1 -i 45 -a 1 -x {2.0 0.0 3 ------- null}
- -t 0.33461 -s 3 -d 0 -p cbr -e 210 -c 1 -i 45 -a 1 -x {2.0 0.0 3 ------- null}
h -t 0.33461 -s 3 -d 0 -p cbr -e 210 -c 1 -i 45 -a 1 -x {2.0 0.0 -1 ------- null}
r -t 0.33504 -s 3 -d 0 -p cbr -e 210 -c 1 -i 42 -a 1 -x {2.0 0.0 0 ------- null}
+ -t 0.3375 -s 2 -d 4 -p cbr -e 210 -c 1 -i 52 -a 1 -x {2.0 0.0 10 ------- null}
- -t 0.3375 -s 2 -d 4 -p cbr -e 210 -c 1 -i 52 -a 1 -x {2.0 0.0 10 ------- null}
h -t 0.3375 -s 2 -d 4 -p cbr -e 210 -c 1 -i 52 -a 1 -x {2.0 0.0 -1 ------- null}
r -t 0.33793 -s 2 -d 4 -p cbr -e 210 -c 1 -i 49 -a 1 -x {2.0 0.0 7 ------- null}
+ -t 0.33793 -s 4 -d 3 -p cbr -e 210 -c 1 -i 49 -a 1 -x {2.0 0.0 7 ------- null}
- -t 0.33793 -s 4 -d 3 -p cbr -e 210 -c 1 -i 49 -a 1 -x {2.0 0.0 7 ------- null}
h -t 0.33793 -s 4 -d 3 -p cbr -e 210 -c 1 -i 49 -a 1 -x {2.0 0.0 -1 ------- null}
r -t 0.33836 -s 4 -d 3 -p cbr -e 210 -c 1 -i 46 -a 1 -x {2.0 0.0 4 ------- null}
+ -t 0.33836 -s 3 -d 0 -p cbr -e 210 -c 1 -i 46 -a 1 -x {2.0 0.0 4 ------- null}
- -t 0.33836 -s 3 -d 0 -p cbr -e 210 -c 1 -i 46 -a 1 -x {2.0 0.0 4 ------- null}
h -t 0.33836 -s 3 -d 0 -p cbr -e 210 -c 1 -i 46 -a 1 -x {2.0 0.0 -1 ------- null}
r -t 0.33879 -s 3 -d 0 -p cbr -e 210 -c 1 -i 43 -a 1 -x {2.0 0.0 1 ------- null}
+ -t 0.34125 -s 2 -d 4 -p cbr -e 210 -c 1 -i 53 -a 1 -x {2.0 0.0 11 ------- null}
- -t 0.34125 -s 2 -d 4 -p cbr -e 210 -c 1 -i 53 -a 1 -x {2.0 0.0 11 ------- null}
h -t 0.34125 -s 2 -d 4 -p cbr -e 210 -c 1 -i 53 -a 1 -x {2.0 0.0 -1 ------- null}
r -t 0.34168 -s 2 -d 4 -p cbr -e 210 -c 1 -i 50 -a 1 -x {2.0 0.0 8 ------- null}
+ -t 0.34168 -s 4 -d 3 -p cbr -e 210 -c 1 -i 50 -a 1 -x {2.0 0.0 8 ------- null}
- -t 0.34168 -s 4 -d 3 -p cbr -e 210 -c 1 -i 50 -a 1 -x {2.0 0.0 8 ------- null}
h -t 0.34168 -s 4 -d 3 -p cbr -e 210 -c 1 -i 50 -a 1 -x {2.0 0.0 -1 ------- null}
r -t 0.34211 -s 4 -d 3 -p cbr -e 210 -c 1 -i 47 -a 1 -x {2.0 0.0 5 ------- null}
+ -t 0.34211 -s 3 -d 0 -p cbr -e 210 -c 1 -i 47 -a 1 -x {2.0 0.0 5 ------- null}
- -t 0.34211 -s 3 -d 0 -p cbr -e 210 -c 1 -i 47 -a 1 -x {2.0 0.0 5 ------- null}
h -t 0.34211 -s 3 -d 0 -p cbr -e 210 -c 1 -i 47 -a 1 -x {2.0 0.0 -1 ------- null}
r -t 0.34254 -s 3 -d 0 -p cbr -e 210 -c 1 -i 44 -a 1 -x {2.0 0.0 2 ------- null}
+ -t 0.345 -s 2 -d 4 -p cbr -e 210 -c 1 -i 54 -a 1 -x {2.0 0.0 12 ------- null}
- -t 0.345 -s 2 -d 4 -p cbr -e 210 -c 1 -i 54 -a 1 -x {2.0 0.0 12 ------- null}
h -t 0.345 -s 2 -d 4 -p cbr -e 210 -c 1 -i 54 -a 1 -x {2.0 0.0 -1 ------- null}
r -t 0.34543 -s 2 -d 4 -p cbr -e 210 -c 1 -i 51 -a 1 -x {2.0 0.0 9 ------- null}
+ -t 0.34543 -s 4 -d 3 -p cbr -e 210 -c 1 -i 51 -a 1 -x {2.0 0.0 9 ------- null}
- -t 0.34543 -s 4 -d 3 -p cbr -e 210 -c 1 -i 51 -a 1 -x {2.0 0.0 9 ------- null}
h -t 0.34543 -s 4 -d 3 -p cbr -e 210 -c 1 -i 51 -a 1 -x {2.0 0.0 -1 ------- null}
r -t 0.34586 -s 4 -d 3 -p cbr -e 210 -c 1 -i 48 -a 1 -x {2.0 0.0 6 ------- null}
+ -t 0.34586 -s 3 -d 0 -p cbr -e 210 -c 1 -i 48 -a 1 -x {2.0 0.0 6 ------- null}
- -t 0.34586 -s 3 -d 0 -p cbr -e 210 -c 1 -i 48 -a 1 -x {2.0 0.0 6 ------- null}
h -t 0.34586 -s 3 -d 0 -p cbr -e 210 -c 1 -i 48 -a 1 -x {2.0 0.0 -1 ------- null}
r -t 0.34629 -s 3 -d 0 -p cbr -e 210 -c 1 -i 45 -a 1 -x {2.0 0.0 3 ------- null}
+ -t 0.34875 -s 2 -d 4 -p cbr -e 210 -c 1 -i 55 -a 1 -x {2.0 0.0 13 ------- null}
- -t 0.34875 -s 2 -d 4 -p cbr -e 210 -c 1 -i 55 -a 1 -x {2.0 0.0 13 ------- null}
h -t 0.34875 -s 2 -d 4 -p cbr -e 210 -c 1 -i 55 -a 1 -x {2.0 0.0 -1 ------- null}
r -t 0.34918 -s 2 -d 4 -p cbr -e 210 -c 1 -i 52 -a 1 -x {2.0 0.0 10 ------- null}
+ -t 0.34918 -s 4 -d 3 -p cbr -e 210 -c 1 -i 52 -a 1 -x {2.0 0.0 10 ------- null}
- -t 0.34918 -s 4 -d 3 -p cbr -e 210 -c 1 -i 52 -a 1 -x {2.0 0.0 10 ------- null}
h -t 0.34918 -s 4 -d 3 -p cbr -e 210 -c 1 -i 52 -a 1 -x {2.0 0.0 -1 ------- null}
r -t 0.34961 -s 4 -d 3 -p cbr -e 210 -c 1 -i 49 -a 1 -x {2.0 0.0 7 ------- null}
+ -t 0.34961 -s 3 -d 0 -p cbr -e 210 -c 1 -i 49 -a 1 -x {2.0 0.0 7 ------- null}
- -t 0.34961 -s 3 -d 0 -p cbr -e 210 -c 1 -i 49 -a 1 -x {2.0 0.0 7 ------- null}
h -t 0.34961 -s 3 -d 0 -p cbr -e 210 -c 1 -i 49 -a 1 -x {2.0 0.0 -1 ------- null}
r -t 0.35004 -s 3 -d 0 -p cbr -e 210 -c 1 -i 46 -a 1 -x {2.0 0.0 4 ------- null}
+ -t 0.3525 -s 2 -d 4 -p cbr -e 210 -c 1 -i 56 -a 1 -x {2.0 0.0 14 ------- null}
- -t 0.3525 -s 2 -d 4 -p cbr -e 210 -c 1 -i 56 -a 1 -x {2.0 0.0 14 ------- null}
h -t 0.3525 -s 2 -d 4 -p cbr -e 210 -c 1 -i 56 -a 1 -x {2.0 0.0 -1 ------- null}
r -t 0.35293 -s 2 -d 4 -p cbr -e 210 -c 1 -i 53 -a 1 -x {2.0 0.0 11 ------- null}
+ -t 0.35293 -s 4 -d 3 -p cbr -e 210 -c 1 -i 53 -a 1 -x {2.0 0.0 11 ------- null}
- -t 0.35293 -s 4 -d 3 -p cbr -e 210 -c 1 -i 53 -a 1 -x {2.0 0.0 11 ------- null}
h -t 0.35293 -s 4 -d 3 -p cbr -e 210 -c 1 -i 53 -a 1 -x {2.0 0.0 -1 ------- null}
r -t 0.35336 -s 4 -d 3 -p cbr -e 210 -c 1 -i 50 -a 1 -x {2.0 0.0 8 ------- null}
+ -t 0.35336 -s 3 -d 0 -p cbr -e 210 -c 1 -i 50 -a 1 -x {2.0 0.0 8 ------- null}
- -t 0.35336 -s 3 -d 0 -p cbr -e 210 -c 1 -i 50 -a 1 -x {2.0 0.0 8 ------- null}
h -t 0.35336 -s 3 -d 0 -p cbr -e 210 -c 1 -i 50 -a 1 -x {2.0 0.0 -1 ------- null}
r -t 0.35379 -s 3 -d 0 -p cbr -e 210 -c 1 -i 47 -a 1 -x {2.0 0.0 5 ------- null}
+ -t 0.35625 -s 2 -d 4 -p cbr -e 210 -c 1 -i 57 -a 1 -x {2.0 0.0 15 ------- null}
- -t 0.35625 -s 2 -d 4 -p cbr -e 210 -c 1 -i 57 -a 1 -x {2.0 0.0 15 ------- null}
h -t 0.35625 -s 2 -d 4 -p cbr -e 210 -c 1 -i 57 -a 1 -x {2.0 0.0 -1 ------- null}
r -t 0.35668 -s 2 -d 4 -p cbr -e 210 -c 1 -i 54 -a 1 -x {2.0 0.0 12 ------- null}
+ -t 0.35668 -s 4 -d 3 -p cbr -e 210 -c 1 -i 54 -a 1 -x {2.0 0.0 12 ------- null}
- -t 0.35668 -s 4 -d 3 -p cbr -e 210 -c 1 -i 54 -a 1 -x {2.0 0.0 12 ------- null}
h -t 0.35668 -s 4 -d 3 -p cbr -e 210 -c 1 -i 54 -a 1 -x {2.0 0.0 -1 ------- null}
r -t 0.35711 -s 4 -d 3 -p cbr -e 210 -c 1 -i 51 -a 1 -x {2.0 0.0 9 ------- null}
+ -t 0.35711 -s 3 -d 0 -p cbr -e 210 -c 1 -i 51 -a 1 -x {2.0 0.0 9 ------- null}
- -t 0.35711 -s 3 -d 0 -p cbr -e 210 -c 1 -i 51 -a 1 -x {2.0 0.0 9 ------- null}
h -t 0.35711 -s 3 -d 0 -p cbr -e 210 -c 1 -i 51 -a 1 -x {2.0 0.0 -1 ------- null}
r -t 0.35754 -s 3 -d 0 -p cbr -e 210 -c 1 -i 48 -a 1 -x {2.0 0.0 6 ------- null}
+ -t 0.36 -s 2 -d 4 -p cbr -e 210 -c 1 -i 58 -a 1 -x {2.0 0.0 16 ------- null}
- -t 0.36 -s 2 -d 4 -p cbr -e 210 -c 1 -i 58 -a 1 -x {2.0 0.0 16 ------- null}
h -t 0.36 -s 2 -d 4 -p cbr -e 210 -c 1 -i 58 -a 1 -x {2.0 0.0 -1 ------- null}
r -t 0.36043 -s 2 -d 4 -p cbr -e 210 -c 1 -i 55 -a 1 -x {2.0 0.0 13 ------- null}
+ -t 0.36043 -s 4 -d 3 -p cbr -e 210 -c 1 -i 55 -a 1 -x {2.0 0.0 13 ------- null}
- -t 0.36043 -s 4 -d 3 -p cbr -e 210 -c 1 -i 55 -a 1 -x {2.0 0.0 13 ------- null}
h -t 0.36043 -s 4 -d 3 -p cbr -e 210 -c 1 -i 55 -a 1 -x {2.0 0.0 -1 ------- null}
r -t 0.36086 -s 4 -d 3 -p cbr -e 210 -c 1 -i 52 -a 1 -x {2.0 0.0 10 ------- null}
+ -t 0.36086 -s 3 -d 0 -p cbr -e 210 -c 1 -i 52 -a 1 -x {2.0 0.0 10 ------- null}
- -t 0.36086 -s 3 -d 0 -p cbr -e 210 -c 1 -i 52 -a 1 -x {2.0 0.0 10 ------- null}
h -t 0.36086 -s 3 -d 0 -p cbr -e 210 -c 1 -i 52 -a 1 -x {2.0 0.0 -1 ------- null}